# vtk DataFile Version 2.0
Structured Grid
ASCII

DATASET RECTILINEAR_GRID
DIMENSIONS 59 58 1
X_COORDINATES 59 double
-29.480833
-28.441442
-27.402050
-26.362659
-25.323267
-24.283876
-23.244484
-22.205092
-21.165701
-20.126309
-19.086918
-18.047526
-17.008135
-15.968743
-14.929351
-13.889960
-12.850568
-11.811177
-10.771785
-9.732394
-8.693002
-7.653610
-6.614219
-5.574827
-4.535436
-3.496044
-2.456652
-1.417261
-0.377869
0.661522
1.700914
2.740305
3.779697
4.819089
5.858480
6.897872
7.937263
8.976655
10.016046
11.055438
12.094830
13.134221
14.173613
15.213004
16.252396
17.291788
18.331179
19.370571
20.409962
21.449354
22.488745
23.528137
24.567529
25.606920
26.646312
27.685703
28.725095
29.764486
30.803878

Y_COORDINATES 58 double
-30.308713
-29.269471
-28.230229
-27.190987
-26.151744
-25.112502
-24.073260
-23.034018
-21.994776
-20.955534
-19.916292
-18.877049
-17.837807
-16.798565
-15.759323
-14.720081
-13.680839
-12.641596
-11.602354
-10.563112
-9.523870
-8.484628
-7.445386
-6.406143
-5.366901
-4.327659
-3.288417
-2.249175
-1.209933
-0.170691
0.868552
1.907794
2.947036
3.986278
5.025520
6.064762
7.104005
8.143247
9.182489
10.221731
11.260973
12.300215
13.339457
14.378700
15.417942
16.457184
17.496426
18.535668
19.574910
20.614153
21.653395
22.692637
23.731879
24.771121
25.810363
26.849605
27.888848
28.928090

Z_COORDINATES 1 double
0 

POINT_DATA 3422
SCALARS var1 double
LOOKUP_TABLE default
0.000000
0.000000
0.000000
0.000000
0.000000
0.000000
0.000000
0.000000
0.000000
0.000000
0.000000
0.000000
0.000000
0.000000
0.000000
0.000000
0.000000
0.000000
0.000000
0.000000
0.000000
0.000000
0.000000
0.000000
0.000000
0.000000
0.000000
0.000000
0.000000
0.000000
0.000000
0.000000
0.000000
0.000000
0.000000
0.000000
0.000000
0.000000
0.000000
0.000000
0.000000
0.000000
0.000000
0.000000
0.000000
0.000000
0.000000
0.000000
0.000000
0.000000
0.000000
0.000000
0.000000
0.000000
0.000000
0.000000
0.000000
0.000000
0.000000
0.000000
0.000000
0.000000
0.410015
0.416088
0.557041
0.661964
0.690902
0.652353
0.621481
0.783801
1.056335
0.839549
0.000000
0.000000
0.000000
0.000000
0.000000
0.000000
0.000000
0.000000
0.000000
0.000000
0.000000
0.000000
0.000000
0.000000
0.000000
0.000000
0.000000
0.000000
0.000000
0.000000
0.000000
0.000000
0.000000
0.000000
0.000000
0.000000
0.000000
0.000000
0.000000
0.000000
0.000000
0.000000
0.000000
0.000000
0.000000
0.000000
0.000000
0.000000
0.000000
0.000000
0.000000
0.000000
0.000000
0.000000
0.000000
0.000000
0.000000
0.000000
0.000000
0.580503
0.396413
0.536326
0.638077
0.774591
0.882135
1.000943
1.159923
1.056208
0.927287
0.685065
0.941028
0.924914
0.822008
0.793272
0.842239
0.814881
0.887272
0.677570
0.630779
0.630604
0.805997
1.063192
1.228429
0.959111
0.859206
0.677823
0.665505
1.060725
1.113277
0.979614
1.051060
0.893411
0.000000
0.000000
0.000000
0.000000
0.000000
0.000000
0.000000
0.000000
0.000000
0.000000
0.000000
0.000000
0.000000
0.000000
0.000000
0.000000
0.000000
0.000000
0.000000
0.000000
0.000000
0.000000
0.000000
0.000000
0.000000
0.000000
0.478561
0.406431
0.487996
0.759783
0.914794
1.064933
1.001625
1.121250
1.022288
1.043644
0.927328
1.105137
0.976852
0.846017
0.813654
0.929616
0.989131
1.277395
0.879009
0.810339
0.693079
0.910140
1.326527
1.273380
1.018947
0.997419
0.806697
1.050366
1.408570
1.296203
1.210463
1.265607
1.094001
0.941435
1.191382
1.527257
1.320190
0.976558
0.980189
0.958773
1.077542
1.009436
0.985884
0.975501
1.218548
0.960413
0.917288
0.747425
0.544894
0.521908
0.814535
0.568798
0.604266
0.718727
0.000000
0.000000
0.000000
0.000000
0.000000
0.775715
0.633063
0.615338
0.851624
1.035159
1.184447
1.119684
1.215729
1.349503
1.187199
1.064436
1.052851
1.080843
1.072927
1.043815
1.046381
1.056956
1.383777
1.056054
0.917950
0.908456
1.137936
1.380621
1.257911
1.201359
1.223046
0.971860
1.265037
1.396092
1.557935
1.479093
1.383449
1.114594
1.107626
1.370367
1.405735
1.465904
1.378421
1.064970
0.955896
1.019598
1.042032
1.198039
1.037905
1.117979
1.084516
1.146223
1.043291
0.797969
0.623807
0.717653
0.623338
0.521450
0.578056
0.000000
0.000000
0.000000
0.000000
0.000000
0.877031
1.028376
0.892725
0.960249
1.101115
1.247903
1.379110
1.301366
1.393201
1.352732
1.368711
1.042352
0.979834
1.001358
1.069592
1.111252
1.144169
1.122641
1.103714
1.037208
1.068990
1.053013
1.189187
1.179936
1.201790
1.222694
1.199314
1.461494
1.295793
1.456363
1.485235
1.588536
1.405975
1.408054
1.438585
1.266693
1.503129
1.585302
1.351911
1.312774
1.295048
1.334690
1.418913
1.375228
1.152459
1.107925
1.232296
1.256207
1.113021
0.874385
0.785925
0.775091
0.683913
0.701545
0.000000
0.000000
0.000000
0.000000
0.000000
0.847872
0.939460
1.222279
1.253749
1.275995
1.348525
1.302541
1.035629
0.920746
1.010143
1.356630
1.317185
1.236860
1.024444
0.893193
1.140698
1.176131
0.931005
1.061524
1.215971
1.143189
1.055511
1.150636
1.199714
1.293803
1.407534
1.449325
1.613493
1.472867
1.607257
1.524120
1.707632
1.746866
1.431157
1.402725
1.613608
1.738156
1.696406
1.412736
1.361590
1.525096
1.481686
1.339697
1.384606
1.212283
1.189708
1.263369
1.282153
1.296850
1.049607
1.005904
0.752022
0.696618
0.942257
0.000000
0.000000
0.000000
0.000000
0.000000
1.195307
0.967177
1.325260
1.430827
1.445012
1.399716
1.275671
1.180760
1.205814
1.281188
1.325635
1.396660
1.464650
1.172963
1.061668
1.335124
1.191147
0.849577
0.959379
1.208866
1.254657
1.279930
1.247650
1.196420
1.295084
1.502742
1.550633
1.597603
1.630031
1.703681
1.711600
1.991181
1.816106
1.577072
1.754341
1.862303
1.738013
1.783107
1.453675
1.392334
1.713936
1.632904
1.335258
1.422011
1.272116
1.324509
1.312675
1.312271
1.461036
1.268333
1.172553
0.637498
0.676661
1.041454
0.000000
0.000000
0.000000
0.000000
0.000000
1.635014
1.098999
1.209613
1.599050
1.610148
1.474054
1.380058
1.376577
1.368645
1.705015
1.689877
1.484582
1.567750
1.310080
1.503156
1.338030
1.114427
1.026601
0.974307
0.950548
1.014488
1.299427
1.360023
1.248946
1.358139
1.572412
1.595836
1.574604
1.564717
1.690864
1.980664
2.109357
1.885120
1.886831
1.957088
1.788759
1.831371
1.830718
0.947655
1.336209
1.868000
1.589450
1.371812
1.178640
1.357693
1.458376
1.352972
1.267548
1.380516
1.355533
1.097280
0.849037
0.796628
0.789526
0.000000
0.000000
0.000000
0.000000
0.000000
1.519061
1.531757
1.607050
1.784296
1.705030
1.702825
1.780051
1.511542
1.481395
1.680133
1.584041
0.982664
1.418944
1.580608
1.560742
1.226931
0.952123
1.020468
1.119500
1.106741
1.477920
2.109472
2.868530
3.472069
3.671308
3.860512
3.394050
2.987038
2.429665
2.126091
2.116317
2.041688
1.878182
2.091927
1.937643
1.728996
1.923170
1.930229
0.885440
1.477272
2.200825
1.867693
1.567996
1.388416
1.558674
1.865014
1.716598
1.598338
1.272054
1.260446
0.912526
0.911364
1.024015
1.008797
0.000000
0.000000
0.000000
0.000000
0.000000
1.636684
1.857593
1.948510
2.021461
1.856598
1.759747
1.867906
1.705769
1.629983
1.683719
1.596190
1.007847
1.381109
1.504677
1.172190
1.106609
1.012149
1.090920
1.708911
3.433214
7.443942
14.318911
25.888793
35.560460
40.193386
40.043241
34.654350
27.115880
18.700724
10.021194
5.710731
4.089978
2.857896
2.237004
1.958777
1.833834
1.964952
2.098843
1.612943
2.199619
2.370933
1.938803
1.853395
1.733612
1.806842
1.961769
1.913960
1.809120
1.488572
1.099536
1.165605
1.043042
1.133791
1.282644
0.000000
0.000000
0.000000
0.000000
0.000000
1.607283
1.852342
1.828922
1.964849
2.021567
2.198508
2.249608
1.843263
1.824934
2.062166
2.190186
1.517909
1.494289
1.463391
1.029738
1.160141
2.372753
6.570039
24.899348
76.149094
167.575425
292.380742
408.707969
458.247304
469.678095
452.526671
373.455252
281.515479
197.002037
108.252353
56.688815
29.388678
13.364714
5.515031
3.356818
2.533247
2.103692
2.304433
2.537941
2.657782
2.503491
2.259284
2.405958
2.107333
2.149505
2.065808
1.971106
1.913455
1.554516
1.100240
1.272374
1.341521
1.105880
1.079794
0.000000
0.000000
0.000000
0.000000
0.000000
1.986351
2.218373
2.206011
2.141089
2.174363
2.363314
2.274958
1.777207
1.598938
2.178303
2.585332
1.966088
1.533588
1.472129
2.215908
6.734701
31.185115
122.352723
324.367074
614.680344
907.604785
1144.200444
1309.580875
1381.190820
1381.803826
1366.463373
1302.852083
1186.008773
1023.224131
776.708480
487.162851
264.841200
115.525702
43.298945
15.528977
5.925811
2.916238
2.579678
2.803221
2.753140
2.474243
2.559729
2.663601
2.443521
2.372583
2.265442
2.107565
1.976587
1.873731
1.260548
1.127838
1.485252
1.512637
1.300679
0.000000
0.000000
0.000000
0.000000
0.000000
2.260406
2.446642
2.327293
2.237121
2.314796
2.469367
2.213815
1.829832
1.983649
2.168063
2.358821
1.953078
2.048100
5.712018
26.496908
111.260203
336.508081
726.252594
1143.330956
1464.665829
1631.663549
1696.897173
1736.303728
1738.905723
1720.561276
1705.490808
1661.641025
1612.666853
1577.771464
1516.427390
1351.168535
1095.438913
727.439868
341.001848
112.752870
28.313477
7.048338
3.512188
2.844769
2.842624
2.613522
2.668490
2.616538
2.512907
2.387202
2.325673
2.147801
2.084953
2.011916
1.738534
1.316229
1.490394
1.687428
1.502891
0.000000
0.000000
0.000000
0.000000
0.000000
2.702723
2.745635
2.444263
2.660844
2.783013
2.688799
2.012703
1.965075
2.287625
2.159376
2.167030
2.532290
9.689081
54.794189
226.053427
638.827824
1128.595089
1492.693190
1697.111180
1762.078653
1745.291655
1699.424805
1674.342017
1653.320342
1632.802077
1617.104395
1596.443279
1589.112931
1607.014242
1621.010683
1606.549984
1555.744081
1415.453024
1136.952131
677.290318
236.300291
45.744671
9.396847
3.878351
3.001033
2.996569
2.830079
2.681126
2.744446
2.598729
2.328705
2.284732
2.235292
2.201282
2.085577
1.716982
1.672580
1.768213
1.654071
0.000000
0.000000
0.000000
0.000000
2.570981
2.898905
2.929571
2.742936
3.013175
3.260079
3.755635
2.831067
2.198206
2.284911
2.255980
2.314285
9.933969
74.978091
320.729727
842.532069
1439.872896
1683.215007
1733.981957
1707.862672
1647.786416
1590.074114
1535.749739
1481.367217
1445.341422
1420.368629
1410.102545
1406.875147
1420.377043
1452.968659
1489.498226
1531.899417
1575.079336
1585.866673
1531.203016
1315.504989
888.006048
359.398256
74.045430
14.572844
4.417295
2.976798
2.979093
2.950179
2.863943
2.829896
2.459467
2.620385
2.665117
2.523340
2.327035
1.969705
1.884988
1.553013
1.476560
0.000000
0.000000
0.000000
0.000000
2.674417
2.945058
3.336201
3.103245
3.002778
3.495978
4.586735
3.226073
2.502968
2.428537
2.772492
5.856067
63.402583
344.004998
933.684552
1512.044009
1699.563240
1698.484951
1634.679436
1558.957635
1481.892136
1398.880235
1331.074983
1259.615208
1220.352204
1193.112131
1183.692455
1178.245078
1200.582752
1235.858027
1287.744276
1349.922547
1427.878674
1500.719626
1558.192096
1564.314522
1413.919268
1014.498513
437.040091
95.096275
15.153642
4.312647
3.254730
3.164539
3.281712
3.293742
2.849796
2.674546
2.831394
2.798056
2.469908
2.064090
1.828420
1.656337
1.483641
0.000000
0.000000
0.000000
0.000000
2.546301
2.950668
3.588121
3.697047
3.151458
2.769363
3.151085
3.091803
2.822539
3.125430
5.731216
36.421216
275.264743
841.083270
1463.377236
1699.767653
1665.025461
1586.703232
1485.766028
1382.095702
1295.531844
1196.978113
1117.978128
1039.457952
988.343768
952.673666
935.405508
929.363770
949.088266
987.633729
1051.874946
1126.012317
1224.156172
1323.932740
1431.296186
1533.685361
1582.718701
1487.651034
1055.688276
433.669496
85.473677
13.253020
4.299975
3.448514
3.296441
3.128835
2.944562
2.874969
2.786541
2.858713
2.635809
2.205693
1.797026
1.838744
2.012283
0.000000
0.000000
0.000000
0.000000
2.705050
2.793551
3.119703
3.385953
2.527417
1.617188
2.511754
3.059637
2.923178
4.873551
18.847054
182.077458
672.127680
1315.763022
1637.728483
1636.112668
1547.660729
1436.505525
1319.973264
1195.553709
1093.535341
991.485839
906.161186
832.686150
776.421411
734.408755
707.785041
699.432287
710.245785
749.079889
820.399119
902.584201
1006.069681
1121.025789
1252.914076
1390.000599
1515.890176
1595.641033
1502.386705
978.227502
350.073957
64.612612
9.237140
4.099183
3.315689
3.101487
3.271604
3.158091
2.886802
2.856352
2.870642
2.634649
2.168921
2.208501
2.332178
0.000000
0.000000
0.000000
0.000000
3.265344
3.410977
3.479683
3.584880
1.896725
0.810948
2.736129
3.099070
4.309674
13.835587
113.430180
563.981635
1177.438694
1570.883794
1618.558583
1521.307139
1403.363026
1271.831052
1143.258141
1022.667628
901.994162
798.417597
713.616107
637.247112
579.076618
540.553923
519.669029
511.735118
521.171527
555.417381
613.255718
690.124545
794.484951
917.493782
1054.952429
1207.358577
1363.959977
1511.627733
1610.597423
1422.793093
813.053400
224.052977
28.530463
5.566730
3.398901
3.181108
3.454200
3.375545
3.177211
3.241111
2.992905
2.952812
2.658413
2.421212
2.225517
0.000000
0.000000
0.000000
0.000000
3.164849
3.409304
3.925440
3.809800
1.842920
1.389507
3.086537
3.708723
10.255122
50.970782
423.851873
1037.253534
1519.317241
1607.419480
1531.437669
1401.228126
1254.430360
1106.346073
971.313478
848.153632
721.710683
618.845355
536.473881
465.632068
409.098797
375.502265
355.326815
352.541857
367.185478
395.028870
439.942613
504.575986
599.597941
722.195466
859.561812
1015.059666
1193.336450
1377.958355
1547.836415
1588.144836
1264.275870
542.733472
94.887181
10.797326
3.897685
3.382962
3.550361
3.549757
3.351007
3.389566
3.167040
3.044925
2.892061
2.384700
2.251931
0.000000
0.000000
0.000000
0.000000
3.080067
3.279046
3.819672
3.689632
1.991869
1.888656
3.052898
5.803972
25.328715
196.055379
830.232210
1410.233571
1608.568570
1545.912623
1420.065579
1276.169887
1112.786728
958.918715
817.641380
680.736824
565.013645
463.566493
379.580522
314.348137
271.532276
247.636588
231.917330
228.661009
244.701327
264.068399
296.749065
350.775074
429.249729
540.802415
673.846745
830.448268
1018.158251
1230.850845
1430.193569
1567.200267
1513.399906
943.927937
249.341151
27.192936
4.969553
3.893409
3.790779
3.671379
3.502631
3.315537
3.079349
3.130089
2.955588
2.432903
2.214741
0.000000
0.000000
0.000000
0.000000
3.116184
3.416960
3.912228
3.267614
2.429244
2.626622
3.344308
10.660043
58.446743
482.346570
1140.209183
1566.071259
1588.066551
1473.178570
1323.382999
1160.753335
993.321624
834.888619
678.341945
538.094160
424.044859
332.427122
257.922554
207.292079
173.471646
154.382118
141.927431
140.477212
151.518952
166.231345
192.023851
231.887438
296.584900
396.697848
516.073174
668.722498
858.230461
1077.950561
1294.741548
1483.167644
1590.218489
1285.381820
517.189638
71.047189
7.640550
4.680987
4.158984
3.704756
3.817285
3.545872
3.078880
3.136706
2.938676
2.422627
2.296741
0.000000
0.000000
0.000000
0.000000
3.068558
3.343576
4.021242
3.174062
2.607901
3.473788
4.782482
20.154324
141.891060
790.335782
1387.005956
1608.946227
1543.465711
1401.316897
1226.591532
1056.167655
887.146054
721.653066
564.862492
432.120384
323.702193
239.155479
174.656809
134.369959
106.130314
90.209436
81.430885
81.438690
88.724559
100.090012
118.722011
150.209467
199.904733
283.474857
391.183988
535.237281
712.712151
925.913311
1157.296825
1374.858943
1559.335805
1480.985543
821.167979
155.267129
14.011668
4.924245
4.156549
3.754374
3.863020
3.668456
3.220515
2.988200
2.871386
2.611562
2.442158
0.000000
0.000000
0.000000
0.000000
3.045926
3.311463
3.992475
3.570314
2.916210
4.131627
7.883179
35.291521
332.963878
1014.831981
1530.688026
1606.276750
1495.877600
1322.488876
1143.575967
968.491871
794.841682
625.328180
472.331187
346.498987
249.781501
172.512098
121.636906
86.713536
63.755719
52.114234
44.996701
44.448928
49.173487
58.332739
72.900439
94.073881
133.172846
199.220108
295.788626
429.092975
597.335831
800.470706
1040.406682
1278.049848
1486.124609
1544.480643
1094.311528
284.596766
26.901295
5.706431
3.920385
3.896408
3.871114
3.410986
3.012073
2.899318
2.806944
2.632762
2.475374
0.000000
0.000000
0.000000
0.000000
3.295546
3.418356
4.046415
3.808284
3.387813
4.354479
11.399218
53.049527
549.823642
1210.354227
1613.658226
1593.119380
1441.889311
1265.268692
1081.469133
899.100242
715.497268
544.415212
393.614961
276.786179
190.034003
124.803485
83.729394
55.991929
39.617162
29.777356
24.069599
23.885349
25.877120
30.748882
41.527085
59.763111
90.297469
145.461695
228.162538
342.211767
503.255279
697.238862
937.583451
1181.511660
1406.987048
1541.282657
1274.114955
432.548997
49.192460
7.467792
4.144544
4.034331
3.979826
3.738950
3.582754
3.263824
2.685410
2.874069
2.706885
0.000000
0.000000
0.000000
0.000000
3.751805
3.811879
4.523577
4.106121
3.630595
4.648666
12.739226
104.462194
698.783940
1359.968484
1637.163294
1566.159687
1401.080552
1219.423007
1030.172371
843.367254
657.441434
486.301732
340.924967
228.291549
143.468248
90.234596
57.331260
35.988548
22.925131
14.719421
11.865391
11.442073
11.813897
15.305352
23.000252
37.334646
60.724413
105.752399
177.473817
276.490407
419.166390
613.370703
854.221149
1109.753780
1348.015437
1526.073598
1373.621961
564.399881
75.611223
9.740904
4.319597
3.771792
3.864114
3.811977
3.603230
3.143585
2.635473
2.943969
2.840347
0.000000
0.000000
0.000000
0.000000
3.725183
4.010538
4.476941
4.255048
3.550218
4.579407
10.846310
164.785259
764.129648
1433.622017
1630.515739
1523.573649
1361.659310
1173.623151
985.967962
794.828382
608.463859
439.746403
299.357328
196.051394
116.934453
69.335523
41.962674
24.042896
13.003102
6.872523
4.999030
4.602630
4.881086
7.619979
12.933953
22.891960
43.627753
79.666866
139.111165
232.888212
368.102542
559.056663
790.829729
1058.414418
1314.536504
1513.272490
1428.916825
660.293854
105.506995
13.125040
4.499494
3.763793
3.860263
3.940812
3.729363
3.320552
2.978626
2.874558
2.860572
0.000000
0.000000
0.000000
0.000000
3.549210
3.967077
4.386395
4.403986
3.446874
4.445834
11.430998
207.903792
794.212634
1477.592835
1627.607101
1509.535428
1340.315604
1153.388428
954.914160
756.981287
570.200935
402.845727
270.512876
173.507901
101.554652
60.043438
33.150996
16.466125
7.764543
3.122920
1.431768
1.127344
1.727144
3.824734
7.764853
16.425363
34.619548
66.597270
120.113838
208.224964
345.893739
531.124232
759.917785
1027.052640
1296.590318
1501.739935
1445.218769
715.188960
131.514496
16.442274
4.871702
3.855250
3.795659
3.788414
3.503402
3.484821
3.396341
3.048627
2.769605
0.000000
0.000000
0.000000
0.000000
3.328916
3.613028
3.979776
4.362612
3.996905
4.535660
16.058869
237.667804
820.346902
1507.707828
1616.340352
1482.081546
1318.360508
1135.035370
939.937906
733.094911
548.699350
388.443554
259.290673
161.683824
95.535560
53.210635
27.151562
12.467277
4.910079
1.471458
0.229065
-0.044987
0.476208
1.976538
5.504066
13.509538
28.941085
60.827560
114.767513
200.374227
332.249480
512.254518
744.027706
1011.730823
1274.394247
1487.811054
1426.069829
741.628319
150.783434
18.836810
5.252867
4.079966
3.726917
3.793470
3.552636
3.426212
3.478596
3.297716
2.823823
2.748579
0.000000
-0.000000
-0.000000
3.838817
4.086243
4.234073
4.148317
3.646880
3.594079
18.857491
245.298615
839.662813
1523.398386
1594.663254
1475.021380
1307.881555
1123.389415
928.012482
724.722750
538.520213
380.613641
256.820397
161.865995
97.526406
54.079977
27.097024
12.053226
4.709391
1.590061
0.399376
0.044727
0.304381
1.874028
5.279187
13.207920
27.666651
58.867795
113.534915
201.639594
328.123590
501.990937
743.259254
1011.161690
1280.123611
1482.519072
1378.640315
732.187761
162.409677
18.623790
5.010250
3.847658
3.747509
3.616070
3.640537
3.387902
3.284490
3.125488
2.822589
2.551493
0.000000
-0.000000
-0.000000
3.874408
3.968899
4.172750
3.922081
3.532022
3.271129
17.434790
204.936900
792.621120
1521.693154
1572.420191
1481.186719
1326.303155
1145.877563
942.294349
739.131255
551.737819
392.360369
264.718995
169.387682
105.455837
59.675703
30.180204
14.431943
6.481972
2.964534
1.260181
0.950606
1.319510
3.257771
7.572943
16.081356
31.435564
63.179982
120.359426
210.374028
343.522161
528.394388
764.697346
1035.217056
1306.329033
1487.463165
1337.008464
692.589347
157.167526
17.761765
4.907595
3.955672
3.787481
3.729794
3.511596
3.432166
3.243038
2.867225
2.639100
2.546993
0.000000
-0.000000
-0.000000
4.006843
3.642101
3.734886
3.675576
3.777634
3.796284
16.511518
152.220000
689.677422
1395.468356
1548.562644
1488.588623
1344.477617
1167.423988
968.993584
766.659491
583.014516
417.022140
287.330135
188.724579
118.329196
69.482824
36.762324
18.642299
9.735602
5.333621
3.164747
2.628279
3.356371
5.811845
11.036770
21.302745
40.579077
77.998290
141.430160
237.335555
377.062255
566.851460
806.633890
1081.343113
1343.570648
1487.652410
1296.866179
627.346853
129.760816
14.457366
4.619188
3.935785
4.051444
4.009173
3.726087
3.477775
3.092796
2.718988
2.737527
2.714713
0.000000
-0.000000
-0.000000
4.041907
3.692183
3.677026
3.762881
3.883517
4.261203
13.423817
99.918100
548.047338
1252.401334
1525.624699
1508.360436
1364.422505
1189.995393
1003.436391
811.896144
630.960614
462.561632
325.738644
219.126774
139.638232
84.520660
48.470382
27.433067
15.583933
9.642522
6.878509
5.870562
7.162872
10.874613
18.366431
31.925761
57.509280
102.662573
174.449270
277.765543
425.166896
625.694749
869.174693
1141.890204
1378.047133
1480.973649
1227.366200
527.308265
92.152369
10.942992
4.125404
3.672267
3.834899
3.608202
3.715147
3.565782
3.106217
2.756434
2.899063
2.687614
0.000000
-0.000000
-0.000000
3.288569
3.753640
3.955870
4.290503
4.043924
3.883620
8.472996
50.045923
378.459368
1074.004891
1494.075838
1537.094629
1408.044874
1243.171051
1067.303295
878.837525
697.040651
529.896464
380.726528
262.270604
175.641938
110.779519
69.650378
43.390946
28.233845
19.178766
15.333658
13.917663
15.462923
21.412019
31.996013
51.817403
84.341707
138.537720
223.898769
341.034600
498.423671
706.224299
957.891600
1214.914392
1415.722379
1465.425824
1110.032429
399.441336
54.051507
7.867273
3.860018
3.600692
3.527348
3.272403
3.507622
3.521160
3.166598
2.995147
2.673110
2.328611
0.000000
-0.000000
-0.000000
2.812426
3.459745
4.017972
4.112763
3.961265
3.606025
5.546458
20.727683
223.960195
854.280326
1429.066278
1576.024708
1469.541877
1316.089817
1151.087885
970.000595
788.792870
609.043199
455.042664
331.489000
233.443567
155.518821
105.243493
71.767459
51.694849
39.596829
33.252298
32.144540
34.965287
42.724309
57.641204
83.001538
124.428813
191.031465
291.387849
429.526646
598.226185
807.284198
1060.585681
1292.666194
1462.660035
1431.498195
918.963384
256.432638
29.081365
5.624901
3.603133
3.512184
3.383748
3.338190
3.442243
3.391856
3.042172
2.872888
2.568623
2.207443
0.000000
-0.000000
-0.000000
3.090875
3.499266
3.747414
4.100094
4.112293
3.879542
4.418736
7.793996
114.490071
613.474225
1312.528090
1606.090128
1532.617297
1405.805960
1252.690050
1076.979273
896.659881
710.942980
542.780080
413.308119
310.196864
224.434574
161.791491
120.583102
94.073121
77.104541
67.535592
65.615287
69.651309
82.138097
105.312874
139.139486
193.444561
275.805552
391.180507
540.260359
715.536806
930.974010
1164.765233
1371.206243
1491.457599
1299.172776
648.726550
133.306515
14.992617
4.409752
3.693954
3.489210
3.534627
3.516544
3.440774
3.281341
2.957638
2.637513
2.468974
2.276931
0.000000
-0.000000
-0.000000
2.867162
3.197658
3.440216
3.782775
4.110582
4.002022
4.032824
5.314488
46.479199
352.986485
1066.819762
1595.598606
1581.896736
1489.362014
1352.400512
1183.011537
1009.849026
827.099761
653.405686
515.173295
407.624670
317.193976
246.534823
196.596305
161.450984
135.930365
123.053252
121.477989
130.161128
148.313447
177.611115
229.788305
298.501732
392.054398
512.012649
668.818778
856.559809
1065.384014
1276.849338
1436.717610
1443.400595
1023.111108
366.642593
54.919834
8.658385
4.438632
3.618374
3.459587
3.322146
3.346104
3.312290
3.170323
3.117030
2.511230
2.449807
2.424005
0.000000
-0.000000
-0.000000
2.684586
2.806142
2.988071
3.484444
3.628634
3.556283
3.470868
3.972608
17.703119
157.985997
696.374312
1405.123927
1586.941292
1563.850629
1455.270449
1310.359363
1150.329323
970.314124
798.419530
649.729197
528.166027
431.712775
351.647675
295.957575
254.150379
222.939788
208.042767
204.694624
217.972634
245.299081
285.303187
347.324487
428.338090
529.579361
657.458974
826.329729
1016.275143
1212.970692
1390.380299
1467.300329
1263.608381
663.617829
157.852986
21.945281
6.188267
4.062767
3.391080
3.383147
3.214931
3.334814
3.269079
2.948028
2.661145
2.297873
2.365740
2.204266
0.000000
-0.000000
-0.000000
2.609833
2.813302
3.040549
3.372587
3.432904
3.430926
3.604460
3.520865
7.616064
47.718808
279.713006
1013.527814
1480.069969
1618.475845
1553.943685
1441.842928
1294.334384
1123.501605
963.572423
814.733268
686.282197
581.944928
493.532882
430.673186
381.366310
349.448317
330.502929
328.698668
343.697215
375.187682
423.397479
489.389602
577.171074
690.248489
831.851227
998.489704
1187.921122
1355.419866
1474.510374
1373.513452
908.184000
331.064841
54.627193
9.735575
4.706485
3.695024
3.453122
3.279384
3.162778
3.190623
3.106410
2.824168
2.534721
2.349387
2.359590
2.065190
0.000000
-0.000000
-0.000000
2.682561
2.805707
3.007932
3.287494
3.493794
3.513369
3.615818
3.438657
4.386900
12.464480
69.439297
526.434727
1145.802831
1575.095083
1645.107246
1562.951445
1434.500738
1289.940118
1144.062446
998.266305
875.529961
768.237034
676.309911
602.183504
553.313495
520.653774
495.426208
492.686038
506.056133
539.601170
595.833806
668.209051
763.287363
880.149477
1031.403277
1196.138730
1361.165839
1482.864217
1447.007918
1083.729580
477.436537
105.947201
17.966898
6.229564
3.675882
3.205844
3.235241
3.309898
3.251920
2.994089
2.909303
2.642691
2.527927
2.460014
2.387390
2.076615
0.000000
-0.000000
2.106107
2.586151
2.823632
3.099144
3.096343
3.330602
3.542968
3.585222
3.293508
3.246198
4.647887
17.014869
166.146905
616.068088
1271.435253
1629.866817
1634.092995
1553.424938
1434.339377
1308.986009
1188.575208
1079.390873
976.627259
884.110925
811.059991
759.865610
722.222701
699.166726
696.391294
708.873494
742.206768
795.040933
874.863817
975.278640
1090.677113
1235.290194
1375.902335
1479.809011
1464.109377
1163.766086
580.107705
159.169322
26.157368
7.393365
4.387202
3.250975
3.073403
3.103089
3.171823
3.126942
2.750134
2.651799
2.614418
2.167734
2.001679
2.056789
2.027183
0.000000
-0.000000
1.916357
2.157309
2.461528
2.705981
2.858951
3.111332
3.270795
3.266499
2.990333
2.823727
2.904464
5.180142
33.787721
193.285579
664.941121
1298.850502
1578.381921
1640.662637
1567.169763
1466.985749
1362.220849
1271.349585
1182.628401
1099.437412
1036.266387
996.030128
952.735514
925.309665
928.131456
952.608395
983.074241
1028.284047
1105.662677
1202.591006
1312.694674
1432.167143
1514.082082
1463.937104
1174.493948
644.873622
206.261456
40.323068
8.892566
4.473147
3.414890
2.897669
2.830605
2.920562
3.021880
3.158311
2.684817
2.440060
2.274785
1.957464
1.696969
1.690990
1.818027
0.000000
-0.000000
1.541805
1.722014
1.948979
2.176420
2.511302
2.757657
2.784884
2.757948
2.686369
2.600209
2.428424
2.640700
6.730936
35.023182
165.463395
602.623426
1147.358188
1530.418500
1639.857816
1594.477222
1516.875517
1445.924351
1378.913354
1315.273134
1262.172163
1223.833772
1194.121737
1172.138904
1183.467115
1212.117202
1236.555918
1278.122778
1330.779708
1398.168406
1487.521821
1527.752958
1430.141054
1111.272018
623.123971
218.978037
46.399088
10.857903
4.774069
3.555073
3.009707
2.761895
2.720021
2.685434
3.055853
2.817599
2.582914
2.500562
2.229737
2.030566
1.770036
1.684537
1.702791
0.000000
-0.000000
1.523847
1.912625
2.093782
2.178143
2.326960
2.593028
2.384521
2.303634
2.312702
2.553899
2.483065
2.431531
2.840565
6.063712
23.554286
129.349262
447.559225
952.164410
1409.677029
1572.977853
1603.452974
1591.275469
1552.192030
1509.262236
1469.284576
1443.691321
1423.433448
1415.791066
1429.188971
1448.441963
1460.490772
1485.957373
1503.979254
1517.994704
1492.564467
1320.407508
943.546274
501.645546
177.178753
43.547286
10.910841
4.567452
3.350617
3.087502
2.920202
2.862262
2.724907
2.656166
2.801067
2.523707
2.464173
2.501638
2.185346
2.094523
1.944434
1.799564
1.770031
0.000000
-0.000000
1.744632
2.133862
2.307245
2.323443
2.258953
2.238992
2.226278
2.210228
2.184177
2.194318
2.326190
2.508216
2.563809
2.993683
4.249219
15.188512
72.140083
256.879386
638.059011
1046.157812
1348.861909
1514.856723
1572.349633
1591.241209
1584.478775
1579.434970
1575.695986
1574.187310
1575.711270
1575.348841
1563.045629
1522.433310
1449.766441
1313.535224
1065.318747
686.571084
312.397069
107.068999
30.052932
9.256325
4.480423
3.139405
2.754104
2.710749
2.765494
2.861759
2.780593
2.441896
2.337156
2.276268
2.183818
2.157763
2.066178
2.013009
1.971597
2.008098
1.904929
0.000000
-0.000000
1.543809
1.605823
1.911493
2.065945
2.196106
2.041763
2.000740
2.199430
2.407443
2.383551
2.361405
2.382342
2.415699
2.673827
2.658820
2.935938
7.523719
28.994300
106.088284
304.511347
604.170033
907.229646
1142.393333
1292.770939
1365.499580
1411.915241
1437.814544
1446.620167
1417.761580
1347.527956
1237.865107
1062.315823
835.586521
590.016996
340.706576
161.134198
58.182389
18.303859
7.088920
4.119259
3.072170
2.671907
2.478150
2.444255
2.565262
2.710577
2.626162
2.322087
2.301433
2.118663
1.855275
1.841459
1.930987
1.782384
1.781120
1.917872
1.706549
0.000000
-0.000000
1.134313
1.283032
1.559454
1.649604
1.830680
1.734236
1.710480
1.919231
2.191944
2.177833
2.207811
2.263487
2.274759
2.379381
2.360192
2.344244
2.498950
3.608320
10.259725
31.609262
94.399492
211.416472
368.205654
518.806273
632.443829
711.810751
758.864081
767.347221
706.333648
599.670723
476.664893
338.774957
214.748760
116.932330
54.912068
23.582203
9.787845
4.756727
3.469806
3.240497
3.030365
2.813554
2.476096
2.910385
2.466711
2.426853
2.422717
2.270482
2.224107
2.158424
1.797558
1.648111
1.609543
1.460887
1.420039
1.194360
1.327310
0.000000
-0.000000
1.015400
1.184886
1.409157
1.548753
1.586325
1.628156
1.690494
1.848362
1.876720
1.815775
1.907770
2.083694
2.042128
2.015846
1.877308
2.024563
2.126224
2.106612
2.648676
4.393128
9.081089
20.092152
40.438291
61.937592
91.882420
120.431190
136.170530
138.191054
122.646022
91.719727
62.521007
38.323471
22.341285
12.318088
7.498057
4.853589
3.619649
2.875219
2.802818
2.760510
2.688291
2.710408
2.444711
2.141900
2.241083
2.077181
2.046744
1.894262
1.992762
2.007614