# vtk DataFile Version 2.0
Structured Grid
ASCII

DATASET RECTILINEAR_GRID
DIMENSIONS 59 58 1
X_COORDINATES 59 double
-30.003872
-28.964480
-27.925089
-26.885697
-25.846305
-24.806914
-23.767522
-22.728131
-21.688739
-20.649348
-19.609956
-18.570564
-17.531173
-16.491781
-15.452390
-14.412998
-13.373607
-12.334215
-11.294823
-10.255432
-9.216040
-8.176649
-7.137257
-6.097865
-5.058474
-4.019082
-2.979691
-1.940299
-0.900908
0.138484
1.177876
2.217267
3.256659
4.296050
5.335442
6.374833
7.414225
8.453617
9.493008
10.532400
11.571791
12.611183
13.650575
14.689966
15.729358
16.768749
17.808141
18.847532
19.886924
20.926316
21.965707
23.005099
24.044490
25.083882
26.123273
27.162665
28.202057
29.241448
30.280840

Y_COORDINATES 58 double
-31.060024
-30.020782
-28.981539
-27.942297
-26.903055
-25.863813
-24.824571
-23.785329
-22.746086
-21.706844
-20.667602
-19.628360
-18.589118
-17.549876
-16.510634
-15.471391
-14.432149
-13.392907
-12.353665
-11.314423
-10.275181
-9.235938
-8.196696
-7.157454
-6.118212
-5.078970
-4.039728
-3.000485
-1.961243
-0.922001
0.117241
1.156483
2.195725
3.234967
4.274210
5.313452
6.352694
7.391936
8.431178
9.470420
10.509663
11.548905
12.588147
13.627389
14.666631
15.705873
16.745115
17.784358
18.823600
19.862842
20.902084
21.941326
22.980568
24.019811
25.059053
26.098295
27.137537
28.176779

Z_COORDINATES 1 double
0 

POINT_DATA 3422
SCALARS var1 double
LOOKUP_TABLE default
0.000000
0.000000
0.000000
0.000000
0.000000
0.000000
0.000000
0.000000
0.000000
0.000000
0.000000
0.000000
0.000000
0.000000
0.000000
0.000000
0.000000
0.000000
0.000000
0.000000
0.000000
0.000000
0.000000
0.000000
0.000000
0.000000
0.000000
0.000000
0.000000
0.000000
0.000000
0.000000
0.000000
0.000000
0.000000
0.000000
0.000000
0.000000
0.000000
0.000000
0.000000
0.000000
0.000000
0.000000
0.000000
0.000000
0.000000
0.000000
0.000000
0.000000
0.000000
0.000000
0.000000
0.000000
0.000000
0.000000
0.000000
0.000000
0.000000
0.000000
0.000000
0.000000
0.421248
0.427687
0.572459
0.679843
0.709364
0.669501
0.637289
0.803064
1.081334
0.857998
0.000000
0.000000
0.000000
0.000000
0.000000
0.000000
0.000000
0.000000
0.000000
0.000000
0.000000
0.000000
0.000000
0.000000
0.000000
0.000000
0.000000
0.000000
0.000000
0.000000
0.000000
0.000000
0.000000
0.000000
0.000000
0.000000
0.000000
0.000000
0.000000
0.000000
0.000000
0.000000
0.000000
0.000000
0.000000
0.000000
0.000000
0.000000
0.000000
0.000000
0.000000
0.000000
0.000000
0.000000
0.000000
0.000000
0.000000
0.000000
0.000000
0.597042
0.407880
0.551766
0.656272
0.796431
0.906472
1.027883
1.190392
1.082886
0.949397
0.699715
0.960231
0.941976
0.834115
0.800688
0.846496
0.813524
0.883234
0.668622
0.616803
0.609947
0.780314
1.038196
1.200796
0.923988
0.820244
0.640519
0.623971
1.013592
1.057071
0.926638
1.000369
0.840545
0.000000
0.000000
0.000000
0.000000
0.000000
0.000000
0.000000
0.000000
0.000000
0.000000
0.000000
0.000000
0.000000
0.000000
0.000000
0.000000
0.000000
0.000000
0.000000
0.000000
0.000000
0.000000
0.000000
0.000000
0.000000
0.000000
0.493209
0.418800
0.502555
0.782218
0.941671
1.095688
1.030056
1.152352
1.049717
1.070433
0.949733
1.130256
0.996468
0.860382
0.823001
0.935992
0.991588
1.278637
0.869575
0.795730
0.672590
0.887104
1.302148
1.240701
0.977320
0.951294
0.758386
0.996083
1.351424
1.232680
1.149250
1.201766
1.027817
0.881619
1.125210
1.452284
1.252916
0.921007
0.924244
0.908338
1.027855
0.959130
0.936736
0.926967
1.168107
0.919028
0.877867
0.715213
0.521311
0.499851
0.782816
0.545781
0.580727
0.690820
0.000000
0.000000
0.000000
0.000000
0.000000
0.799498
0.652891
0.634617
0.877875
1.066887
1.220302
1.153107
1.251352
1.388112
1.219959
1.092323
1.078087
1.104041
1.093421
1.059364
1.055404
1.061129
1.388465
1.049310
0.901227
0.887072
1.112904
1.350471
1.215897
1.152183
1.171586
0.913065
1.199634
1.331448
1.487451
1.407257
1.307193
1.043445
1.039405
1.299806
1.328897
1.389017
1.308809
1.005837
0.905347
0.969268
0.989401
1.138760
0.984717
1.065869
1.033906
1.096839
0.998666
0.762784
0.596743
0.689061
0.597580
0.499843
0.556067
0.000000
0.000000
0.000000
0.000000
0.000000
0.904334
1.060545
0.921261
0.990848
1.136121
1.287585
1.422497
1.341661
1.435506
1.392576
1.407307
1.069031
1.001626
1.019949
1.086251
1.122902
1.149661
1.121424
1.096307
1.017642
1.043083
1.017989
1.146051
1.126638
1.141224
1.161490
1.133271
1.384934
1.216667
1.372490
1.403931
1.503055
1.320194
1.321124
1.353887
1.182794
1.414528
1.502623
1.281325
1.247788
1.229568
1.269378
1.349079
1.302499
1.095953
1.055184
1.177775
1.202555
1.063908
0.833048
0.752038
0.743041
0.656182
0.675370
0.000000
0.000000
0.000000
0.000000
0.000000
0.875166
0.969719
1.262033
1.294904
1.318697
1.393524
1.345607
1.069900
0.950851
1.041992
1.397600
1.354355
1.267930
1.044784
0.905956
1.154105
1.181884
0.923899
1.051398
1.198133
1.113161
1.013126
1.098262
1.137458
1.224295
1.329425
1.364621
1.518336
1.380839
1.511386
1.424958
1.606333
1.643434
1.332530
1.306799
1.512083
1.636969
1.604803
1.330403
1.281984
1.443784
1.406779
1.269420
1.311912
1.151230
1.133022
1.204902
1.224238
1.239063
1.000434
0.962736
0.720569
0.668849
0.906848
0.000000
0.000000
0.000000
0.000000
0.000000
1.233992
0.999132
1.370049
1.480262
1.495832
1.449037
1.320394
1.222139
1.247663
1.324422
1.368747
1.439487
1.505704
1.200163
1.080663
1.353270
1.194125
0.837351
0.945269
1.189772
1.223612
1.238140
1.191060
1.125793
1.213992
1.411254
1.451039
1.492650
1.520540
1.595971
1.598710
1.875913
1.700124
1.461916
1.638607
1.746291
1.637097
1.689739
1.365789
1.302457
1.619723
1.546482
1.259285
1.348364
1.206641
1.260435
1.249627
1.249444
1.393669
1.211260
1.123042
0.609734
0.647705
0.999043
0.000000
0.000000
0.000000
0.000000
0.000000
1.688570
1.136808
1.252408
1.656531
1.668839
1.528171
1.431175
1.428043
1.419625
1.766299
1.749118
1.534269
1.616327
1.343941
1.536622
1.356832
1.114856
1.017131
0.959762
0.924823
0.977117
1.258870
1.306066
1.177901
1.274525
1.475177
1.487002
1.461484
1.452484
1.580002
1.853538
1.970449
1.746308
1.747460
1.816239
1.662305
1.712101
1.725803
0.884593
1.263735
1.768792
1.492410
1.289032
1.109415
1.286035
1.386936
1.286389
1.205214
1.318935
1.295042
1.048927
0.810716
0.760338
0.753931
0.000000
0.000000
0.000000
0.000000
0.000000
1.571345
1.586097
1.665496
1.850403
1.769374
1.767530
1.849441
1.572282
1.541037
1.745965
1.644492
1.018642
1.467153
1.627384
1.598649
1.245749
0.951606
1.012741
1.108762
1.088485
1.458763
2.098050
2.858261
3.457734
3.636483
3.804734
3.314907
2.884575
2.315566
2.007271
1.978853
1.896448
1.731779
1.939186
1.778570
1.583581
1.780297
1.802197
0.820337
1.399389
2.083633
1.749427
1.467579
1.303367
1.473138
1.774460
1.629286
1.522463
1.215368
1.205000
0.871194
0.870750
0.977721
0.964033
0.000000
0.000000
0.000000
0.000000
0.000000
1.694740
1.925729
2.021455
2.098448
1.929634
1.830792
1.945175
1.778073
1.700282
1.756007
1.663120
1.048830
1.433326
1.554946
1.202159
1.126442
1.018480
1.092606
1.726126
3.505478
7.653422
14.777475
26.758177
36.743711
41.470863
41.220866
35.556598
27.671714
18.938610
10.015618
5.592055
3.937835
2.697036
2.074320
1.802264
1.670456
1.801501
1.947353
1.495230
2.069243
2.234650
1.812140
1.735288
1.630732
1.707779
1.861034
1.815073
1.722038
1.419178
1.046633
1.112938
0.997479
1.084920
1.229947
0.000000
0.000000
0.000000
0.000000
0.000000
1.665873
1.921957
1.899981
2.043072
2.104653
2.291714
2.347953
1.926160
1.908169
2.157060
2.289680
1.586441
1.558343
1.519527
1.060898
1.188787
2.437479
6.788523
25.881201
79.414027
175.022435
305.580970
427.197783
478.862793
490.334137
471.811989
388.918840
292.648320
204.159469
111.711791
58.056703
29.774467
13.326985
5.344177
3.165273
2.345124
1.927107
2.130260
2.363651
2.485393
2.345751
2.109300
2.256701
1.980013
2.029367
1.953530
1.868861
1.822811
1.482366
1.045138
1.214771
1.284444
1.058677
1.036328
0.000000
0.000000
0.000000
0.000000
0.000000
2.060293
2.302858
2.293220
2.229758
2.268589
2.470038
2.381796
1.862994
1.679523
2.289095
2.714387
2.065161
1.608460
1.537373
2.304914
7.006759
32.512699
127.848370
339.530293
644.351553
952.490286
1201.476907
1374.963823
1449.517983
1448.723939
1430.521289
1361.876975
1237.690167
1065.674782
807.169766
505.011179
273.617960
118.647553
43.996692
15.471963
5.720898
2.714083
2.389547
2.611491
2.565773
2.300477
2.389863
2.501399
2.296204
2.238588
2.140292
1.995931
1.878906
1.785351
1.197569
1.072543
1.419625
1.448362
1.247064
0.000000
0.000000
0.000000
0.000000
0.000000
2.346397
2.541735
2.422245
2.333931
2.419372
2.585186
2.322121
1.923875
2.092954
2.291066
2.492259
2.064829
2.155526
5.973808
27.679886
116.354714
352.431981
761.794272
1200.961783
1540.408447
1717.715853
1787.507774
1829.236318
1831.220779
1810.313741
1791.851835
1742.459344
1687.505481
1647.355312
1579.657194
1404.349370
1136.245389
752.771828
351.793045
115.558165
28.517573
6.828393
3.294021
2.642808
2.633208
2.422039
2.482733
2.447658
2.360381
2.252302
2.195543
2.029750
1.977205
1.910476
1.651582
1.248308
1.421976
1.614996
1.439268
0.000000
0.000000
0.000000
0.000000
0.000000
2.809140
2.856851
2.546417
2.779009
2.914208
2.822834
2.119532
2.076573
2.428089
2.298755
2.308893
2.686262
10.155956
57.273639
236.509863
669.507869
1184.849599
1569.627359
1787.294412
1858.249051
1842.597306
1795.597244
1769.768001
1747.341387
1724.326222
1704.905368
1679.633750
1667.992718
1682.534112
1692.849211
1673.227691
1616.073246
1466.786864
1175.618719
698.613456
242.547135
46.247240
9.183657
3.649661
2.761660
2.764329
2.617572
2.486887
2.569751
2.444922
2.189842
2.151780
2.116902
2.088159
1.980550
1.630879
1.596029
1.689597
1.582124
0.000000
0.000000
0.000000
0.000000
2.669015
3.015519
3.053353
2.862681
3.150741
3.418249
3.948522
2.993038
2.335818
2.440986
2.416536
2.476893
10.443072
78.368526
335.473628
882.839155
1511.814444
1770.876240
1827.863391
1803.704735
1743.195666
1684.607856
1628.910615
1572.318864
1534.116750
1506.381616
1492.976364
1486.264777
1496.668047
1526.547925
1560.079171
1599.380069
1639.309110
1645.316736
1583.778463
1356.775936
913.349477
367.978335
75.039940
14.355814
4.149010
2.729368
2.733233
2.713806
2.663272
2.649033
2.303065
2.469453
2.526599
2.395721
2.209466
1.871180
1.798639
1.483170
1.410700
0.000000
0.000000
0.000000
0.000000
2.778633
3.067307
3.481312
3.245227
3.147823
3.677059
4.838357
3.421170
2.669605
2.602736
2.969147
6.195746
66.248861
359.520806
977.836340
1586.922080
1787.846106
1790.914975
1727.698585
1651.466799
1573.204782
1487.940603
1418.001334
1343.424977
1301.937877
1271.989327
1260.129115
1251.424816
1271.397597
1304.370302
1354.017791
1413.946098
1489.781363
1559.569358
1613.101280
1613.049512
1453.010390
1039.905025
446.823158
96.305765
14.914484
4.041469
2.980459
2.900281
3.040296
3.074114
2.667749
2.517872
2.682217
2.651940
2.343712
1.961464
1.740878
1.580293
1.415746
0.000000
0.000000
0.000000
0.000000
2.648528
3.076580
3.746932
3.869107
3.308272
2.924939
3.349254
3.292579
3.019916
3.346427
6.079701
38.099807
287.296680
879.779370
1534.249985
1786.521790
1754.713000
1676.788116
1574.527651
1468.817206
1380.578544
1278.837877
1197.009731
1114.667430
1060.520362
1021.977826
1002.258455
993.443829
1011.299008
1048.142037
1111.273142
1184.224937
1281.260429
1378.776602
1483.358143
1581.916699
1625.691653
1522.848259
1078.707086
441.814735
86.115442
12.922302
3.995716
3.169361
3.050769
2.906768
2.746192
2.698564
2.630301
2.705602
2.502657
2.098599
1.710017
1.752325
1.920691
0.000000
0.000000
0.000000
0.000000
2.815536
2.917517
3.265264
3.553160
2.655408
1.708566
2.677241
3.271112
3.140037
5.187740
19.781986
189.830453
701.792869
1377.197999
1718.493427
1721.811010
1633.844308
1521.393921
1402.616946
1274.762615
1169.980888
1064.328337
975.614108
898.557546
838.865929
793.729706
764.296515
753.503530
762.506276
800.411929
871.805762
953.582475
1056.708040
1170.453156
1300.605679
1434.639544
1556.677009
1631.637482
1531.484742
995.060750
354.558748
64.576369
8.878571
3.796642
3.056163
2.868060
3.042179
2.953136
2.715429
2.700020
2.724438
2.507626
2.065201
2.106310
2.226291
0.000000
0.000000
0.000000
0.000000
3.397923
3.560216
3.645117
3.768298
1.993500
0.854743
2.920223
3.325621
4.605226
14.538625
118.072507
587.165208
1229.228259
1644.471561
1699.350134
1602.564083
1483.661876
1349.688460
1218.057342
1094.075627
969.078313
861.428621
772.896041
692.487725
630.743656
589.426726
566.321304
556.296127
564.328917
598.373131
656.227559
732.989631
837.449956
960.298525
1096.833543
1246.987700
1400.400762
1543.995646
1638.400239
1443.763029
822.909552
225.553418
28.121551
5.212173
3.122832
2.927033
3.202731
3.154618
2.985280
3.056980
2.834442
2.806530
2.528619
2.305341
2.120158
0.000000
0.000000
0.000000
0.000000
3.296517
3.560498
4.115119
4.010521
1.939788
1.472468
3.309002
3.978342
10.820274
53.082012
439.936870
1079.234578
1585.414605
1682.292452
1608.076930
1476.709669
1327.372300
1175.885081
1037.282437
910.327538
778.708855
671.339871
584.997469
510.117610
449.806855
413.834252
391.747080
387.686064
401.786805
429.640261
474.440509
539.154843
634.603447
757.696764
894.718014
1048.651302
1224.346153
1405.571779
1572.034046
1608.099689
1277.049482
546.474243
94.564476
10.320005
3.590595
3.105040
3.283053
3.309070
3.140766
3.187913
2.988273
2.885962
2.750680
2.269169
2.145134
0.000000
0.000000
0.000000
0.000000
3.210591
3.427867
4.009087
3.889902
2.099825
2.005915
3.281691
6.189119
26.480093
203.211393
861.027643
1466.491015
1677.455854
1617.080172
1490.528924
1344.778421
1177.781628
1020.019747
874.581155
732.619368
612.131595
505.757161
417.075372
347.727953
301.989134
276.413906
259.204990
255.004134
271.288900
290.383488
322.986621
377.223865
456.448065
568.906104
702.087311
857.699627
1043.475048
1253.753647
1450.357074
1583.401687
1524.365476
948.093470
249.125140
26.454716
4.614225
3.581187
3.501075
3.411514
3.279014
3.117214
2.899241
2.960569
2.805370
2.309649
2.107528
0.000000
0.000000
0.000000
0.000000
3.251543
3.579025
4.114600
3.442448
2.569766
2.808652
3.594845
11.242716
60.625521
498.727033
1181.532737
1626.930392
1654.627686
1539.728419
1387.877516
1222.293040
1050.841348
888.154308
726.188666
580.190797
460.957196
364.658177
285.696101
231.877869
195.636269
175.015729
161.403415
159.488629
170.667017
185.131672
211.210582
251.499153
317.185161
418.398079
537.977264
690.005910
878.349975
1096.521676
1310.382257
1494.649598
1596.933264
1287.994362
516.810949
69.765816
7.170816
4.314916
3.839569
3.435634
3.565163
3.326970
2.892362
2.962437
2.784376
2.295236
2.181488
0.000000
0.000000
0.000000
0.000000
3.205900
3.506989
4.236442
3.346009
2.763207
3.732856
5.116944
21.068574
146.466937
816.006498
1435.503092
1669.307705
1606.053530
1462.588184
1284.590107
1110.706785
937.489539
767.101064
604.610405
466.379915
352.721134
263.548536
194.949617
152.074153
121.705970
104.385897
94.688153
94.434071
102.000996
113.304035
132.050186
164.044814
214.639721
299.745900
408.283860
551.606899
727.829401
939.234394
1167.833203
1381.807766
1561.887376
1480.216381
819.209234
153.108427
13.375540
4.566431
3.827786
3.465613
3.594415
3.432211
3.023134
2.817302
2.717568
2.471829
2.314399
0.000000
0.000000
0.000000
0.000000
3.184046
3.475460
4.210176
3.771121
3.097966
4.447085
8.374603
36.680768
342.874568
1046.476597
1582.059970
1664.191325
1553.898464
1377.559010
1195.275036
1016.614559
838.512812
663.531889
504.823311
373.652336
272.416066
190.681018
136.677306
99.311789
74.521285
61.886773
53.930468
53.182999
58.012667
67.555184
82.371920
103.636075
143.364685
210.566359
308.109514
440.922980
607.604482
808.512492
1045.834383
1279.930444
1483.317129
1538.752542
1089.179981
281.049083
25.996106
5.331435
3.603231
3.584627
3.597616
3.187110
2.826021
2.734470
2.654777
2.490908
2.346418
0.000000
0.000000
0.000000
0.000000
3.448651
3.591553
4.269765
4.032187
3.612085
4.682821
12.042174
54.936918
565.329692
1246.261049
1664.999518
1647.416914
1494.565950
1314.793305
1127.365913
941.114793
752.522368
575.960268
419.415467
297.698160
206.991515
138.057216
94.477404
64.816303
47.256408
36.491799
30.114009
30.039847
31.808240
36.515894
47.663473
66.228606
97.588511
153.434506
236.470375
350.054683
509.629498
701.023780
938.429486
1178.773712
1398.681521
1529.689650
1263.717741
426.478709
47.762424
7.004873
3.803999
3.709503
3.694750
3.485395
3.357736
3.077418
2.533837
2.719417
2.574333
0.000000
0.000000
0.000000
0.000000
3.933727
4.008844
4.772265
4.348645
3.880301
4.988098
13.424458
107.700390
717.461753
1398.216500
1686.248720
1616.092855
1448.661215
1263.696563
1070.525613
879.576788
688.789263
512.294758
361.547482
244.356216
155.325386
99.435015
64.711288
41.951436
27.935597
18.861588
15.769863
15.437139
15.476679
18.896445
26.989208
41.710413
65.716651
111.276383
182.920611
281.068551
421.989597
613.199850
850.422133
1101.503899
1334.042421
1507.901650
1356.535609
554.743408
73.536324
9.187357
3.960083
3.451149
3.568512
3.543227
3.367940
2.956200
2.485715
2.790655
2.701608
0.000000
0.000000
0.000000
0.000000
3.902689
4.215370
4.729889
4.516203
3.792938
4.900450
11.433596
169.358834
782.940651
1470.978297
1675.684434
1568.105587
1403.775575
1212.136339
1020.678092
825.161954
633.957605
460.126625
315.153148
208.109924
125.243882
75.493337
46.957077
27.977947
16.084250
9.301096
7.377521
6.912365
6.994351
9.827364
15.418109
25.589556
46.852596
83.219954
142.222845
234.721395
367.519736
554.820227
782.113336
1044.109028
1294.664832
1489.064792
1405.200458
646.719222
102.622452
12.439481
4.133330
3.446161
3.561256
3.665023
3.487233
3.121382
2.813390
2.721197
2.715236
0.000000
0.000000
0.000000
0.000000
3.718631
4.175710
4.633255
4.674347
3.672291
4.750484
11.999684
213.032020
811.698014
1512.233429
1668.003667
1548.812942
1376.673278
1186.505066
984.080566
781.564425
590.061647
418.019971
281.896567
181.991162
107.172933
64.269675
36.287779
18.657670
9.484599
4.414504
2.650464
2.353662
2.923254
5.108477
9.132968
17.984064
36.415819
68.288426
121.043251
207.176937
341.856067
522.749256
746.071260
1007.130032
1271.072650
1471.985343
1415.589043
698.227858
127.753304
15.618464
4.476460
3.524648
3.492220
3.520312
3.274323
3.274332
3.207649
2.885935
2.624547
0.000000
0.000000
0.000000
0.000000
3.491221
3.808034
4.208531
4.634119
4.263392
4.867188
16.793194
243.106325
836.426287
1538.781204
1651.147254
1514.745376
1348.354894
1162.177401
963.626894
752.010841
563.499383
399.297199
266.981144
167.019128
99.140859
55.547981
28.500980
13.224661
5.448814
1.848152
0.584961
0.452584
1.077678
2.631786
6.246889
14.286006
29.627679
60.807355
113.427008
196.811346
325.227473
499.932687
725.726713
987.109879
1243.977459
1452.385376
1390.499161
722.169377
146.295909
17.903390
4.831221
3.725149
3.420369
3.522288
3.317333
3.209726
3.276821
3.118336
2.676378
2.613877
0.000000
-0.000000
-0.000000
4.026246
4.303473
4.476053
4.406594
3.882440
3.854020
19.715180
250.606282
853.666995
1550.097195
1624.038010
1501.813537
1331.684416
1144.049450
945.188151
737.651936
548.036968
387.100072
261.058066
164.643319
99.364391
54.928784
27.140927
11.651897
4.387596
1.333481
0.268262
0.009353
0.411098
1.981556
5.374921
13.152970
27.206835
57.421172
110.282532
195.527856
317.899156
486.227785
720.546493
981.586644
1244.018276
1441.287997
1338.057321
711.382142
157.359591
17.684202
4.589417
3.499703
3.439300
3.353201
3.394147
3.173603
3.090294
2.956142
2.676668
2.427862
0.000000
-0.000000
-0.000000
4.067030
4.182829
4.415895
4.165328
3.765821
3.506225
18.232020
209.135320
804.029523
1544.198610
1595.716345
1502.617822
1345.046503
1161.374713
954.221741
747.008362
556.409429
394.914045
265.588798
169.415054
105.290356
59.122257
29.124404
13.372885
5.632443
2.296720
0.721232
0.466445
0.910241
2.739808
6.840028
14.960219
29.701557
60.172325
115.128809
201.606115
329.811608
508.180603
737.306462
1000.203671
1264.461654
1440.838992
1294.422977
671.925699
152.045107
16.842111
4.482425
3.603577
3.482932
3.458245
3.274209
3.221479
3.061710
2.714029
2.502659
2.421040
0.000000
-0.000000
-0.000000
4.208744
3.840242
3.961534
3.915093
4.030224
4.055919
17.267017
155.324394
698.197368
1411.630168
1565.713058
1504.651648
1357.981107
1177.438179
975.386004
769.428890
583.519684
415.780996
285.061063
186.169474
115.906943
67.279243
34.520749
16.702648
8.197386
4.067999
2.128564
1.703000
2.393693
4.655810
9.517341
19.100497
37.295212
72.915730
133.483206
225.140815
359.218463
541.872981
773.791902
1040.325303
1295.771666
1436.596509
1253.761191
607.801450
125.154092
13.637920
4.217298
3.600819
3.737215
3.719125
3.477283
3.267058
2.917401
2.571108
2.596750
2.582329
0.000000
-0.000000
-0.000000
4.250918
3.895030
3.900030
4.007556
4.144860
4.545848
14.087612
102.088392
553.709866
1262.552657
1537.059727
1518.766651
1371.873751
1194.088701
1004.300390
809.786506
626.944639
457.342496
320.000906
213.515754
134.520762
80.086585
44.654726
24.235505
12.965406
7.546651
5.113865
4.285406
5.457886
8.808371
15.626855
28.167025
52.138314
94.790511
162.985666
261.471943
402.400177
595.153943
830.320841
1094.698128
1325.056168
1426.886482
1185.564297
510.049397
88.561694
10.255667
3.761954
3.356231
3.538899
3.348189
3.471404
3.351267
2.930423
2.608187
2.750723
2.554870
0.000000
-0.000000
-0.000000
3.453913
3.961218
4.193306
4.569297
4.319921
4.144795
8.943390
51.262158
381.626175
1078.758670
1499.873588
1541.578441
1409.572763
1241.553451
1062.909617
871.812592
688.410852
520.309834
371.016318
253.045518
167.248045
103.562134
63.608277
38.355695
23.944850
15.634543
12.186994
10.969882
12.417323
17.780245
27.435028
45.656081
75.976366
126.974371
207.691667
319.051787
469.462887
669.303891
912.227650
1161.767491
1357.953807
1409.661831
1071.276001
385.633495
51.743291
7.335509
3.510732
3.289212
3.250286
3.036690
3.281384
3.310325
2.984869
2.835563
2.535695
2.212271
0.000000
-0.000000
-0.000000
2.950243
3.648531
4.256992
4.367201
4.220941
3.856040
5.900471
21.429417
225.485748
854.782002
1428.922361
1575.028203
1465.778025
1309.256787
1141.604908
958.099912
775.307230
595.076681
440.906994
317.903816
221.019986
144.531943
95.976847
63.882995
44.790899
33.556363
27.770104
26.738549
29.272738
36.367560
50.082040
73.511168
112.085794
174.571066
269.353389
400.515242
561.886607
763.059484
1007.641181
1233.378561
1400.365889
1375.511845
885.868819
246.916479
27.714345
5.202977
3.289568
3.223092
3.124038
3.097706
3.216045
3.184700
2.868300
2.720769
2.437999
2.100996
0.000000
-0.000000
-0.000000
3.237156
3.684227
3.962426
4.348390
4.384265
4.155717
4.733137
8.141949
115.400074
613.112525
1309.113555
1600.266023
1523.819247
1394.122993
1238.404785
1060.233910
878.214854
692.452787
523.938480
394.910557
292.986714
208.618976
148.008059
108.318706
83.006542
67.071680
58.201978
56.396742
60.089792
71.508315
92.811274
124.225507
174.914082
252.260444
361.339982
503.242757
671.287888
878.567057
1104.745089
1306.348268
1426.392161
1247.323367
624.612417
128.091772
14.196716
4.052132
3.392228
3.220991
3.285318
3.284156
3.223328
3.080978
2.787737
2.493064
2.340378
2.165199
0.000000
-0.000000
-0.000000
3.001837
3.367086
3.626838
4.007575
4.375972
4.278387
4.329255
5.619404
47.223290
352.927787
1062.171463
1585.970804
1568.773175
1473.148138
1333.381817
1161.505645
986.197189
802.849339
629.123149
491.472321
384.730942
295.847542
226.918048
178.582051
144.827139
120.655197
108.455012
106.856197
114.718065
131.372703
158.537176
206.990967
271.423189
359.724958
473.694097
623.330895
803.492835
1004.844115
1210.004514
1367.511391
1379.473284
981.619724
352.369979
52.580544
8.118985
4.087263
3.326091
3.195301
3.090963
3.131324
3.107913
2.984737
2.946299
2.378972
2.324972
2.308495
0.000000
-0.000000
-0.000000
2.809352
2.948469
3.142582
3.685412
3.851078
3.791641
3.727294
4.239904
18.264803
158.424123
691.918236
1393.334542
1570.299929
1543.735710
1432.132695
1284.324905
1121.394935
940.054086
767.948627
619.869584
499.141251
404.051537
325.673438
271.447006
231.073758
201.259148
186.824571
183.249388
195.247847
220.357754
257.514009
315.534361
391.859347
487.922423
609.870669
771.304045
954.008969
1144.308945
1317.470358
1396.156523
1207.337936
636.206116
151.305238
20.856969
5.766627
3.749444
3.126499
3.140349
2.997567
3.124523
3.074319
2.779930
2.519199
2.180847
2.250239
2.100541
0.000000
-0.000000
-0.000000
2.733303
2.952002
3.195800
3.555990
3.628934
3.648204
3.853193
3.770876
7.998261
48.226226
277.190292
1002.770359
1461.123140
1594.743443
1526.690516
1411.109126
1260.505326
1087.706019
926.611004
777.677902
650.001349
546.906268
459.903448
398.041606
350.122609
319.100322
300.398066
298.124269
311.697226
340.832786
385.783407
448.051262
531.205784
638.772421
774.048106
934.010014
1116.619126
1279.748913
1397.843911
1307.221566
867.797146
317.047554
52.141730
9.152584
4.362407
3.413893
3.199963
3.052679
2.956948
2.995789
2.927155
2.668686
2.402943
2.233595
2.246901
1.968112
0.000000
-0.000000
-0.000000
2.810089
2.949077
3.165739
3.465591
3.697230
3.732705
3.852667
3.666628
4.668863
12.874298
69.114258
520.190814
1128.432230
1549.467267
1614.186471
1527.865569
1395.994798
1248.714623
1100.623331
953.958912
831.315522
724.541377
633.315506
560.118458
512.000235
479.725591
454.805743
451.491328
463.478255
494.736227
547.496565
616.062548
706.526365
818.153198
962.990415
1121.679756
1281.736408
1401.810165
1373.050481
1032.150235
456.137785
101.193860
17.025594
5.813686
3.393315
2.961020
3.003910
3.092099
3.054213
2.818382
2.746113
2.500107
2.399327
2.340690
2.275043
1.981043
0.000000
-0.000000
2.198233
2.709127
2.963614
3.264056
3.264792
3.527401
3.766384
3.821946
3.522077
3.481019
4.934733
17.280576
164.744998
605.863136
1248.027727
1596.890632
1595.377269
1510.388670
1387.750951
1259.413523
1137.276008
1027.376947
924.143979
831.413779
758.552919
707.656169
670.270264
647.160465
643.529602
654.687886
685.883853
735.785534
811.622181
907.542317
1018.253766
1157.328499
1293.709614
1396.337880
1386.320563
1105.713068
552.883999
151.922437
24.876259
6.948658
4.083932
3.013528
2.851826
2.897159
2.979996
2.948916
2.597921
2.511492
2.482462
2.061961
1.907809
1.963898
1.937372
0.000000
-0.000000
2.000081
2.256510
2.585204
2.857173
3.022292
3.292892
3.466374
3.479138
3.199323
3.044348
3.134828
5.411117
34.015399
190.515608
651.362427
1269.975371
1538.605906
1593.856190
1516.004723
1412.179296
1305.547647
1213.006746
1122.873530
1038.295925
974.399160
933.231907
889.981417
862.429264
863.860038
886.138714
914.589393
957.516106
1031.310468
1124.323487
1230.503833
1346.308868
1427.533348
1384.398053
1114.068919
613.523177
196.670988
38.409392
8.407155
4.191577
3.183590
2.695768
2.637360
2.736303
2.843936
2.981054
2.538925
2.316259
2.165970
1.867001
1.620376
1.616222
1.738053
0.000000
-0.000000
1.611378
1.802550
2.048896
2.298313
2.658444
2.914846
2.945019
2.935993
2.871339
2.798188
2.630083
2.832330
6.982580
34.853586
161.966624
588.209575
1117.005135
1485.995203
1586.948654
1536.411266
1455.841578
1382.155565
1312.833925
1246.830974
1192.202084
1152.585680
1121.830148
1098.964265
1108.159339
1134.369695
1157.207396
1196.641765
1247.238990
1312.647828
1399.508234
1440.772821
1352.026697
1053.222016
592.105828
208.582752
44.228050
10.303811
4.494248
3.337527
2.820840
2.586173
2.548097
2.525610
2.885468
2.666128
2.447927
2.373126
2.120674
1.937106
1.692373
1.612420
1.631358
0.000000
-0.000000
1.593725
2.001732
2.200303
2.294306
2.457678
2.734361
2.521151
2.450762
2.470971
2.737563
2.671012
2.645606
3.059482
6.263109
23.363586
126.249375
434.753632
923.176131
1365.301824
1518.257847
1541.455770
1524.180819
1481.627925
1435.572562
1393.291489
1365.413243
1343.403849
1333.908948
1345.049763
1362.468956
1373.794227
1398.158241
1416.036849
1430.769572
1409.021430
1248.878619
894.261011
476.467784
168.656133
41.511637
10.381864
4.323899
3.158527
2.904247
2.747331
2.694113
2.563190
2.503020
2.650289
2.395168
2.341965
2.379531
2.082227
1.999420
1.859679
1.724443
1.698929
0.000000
-0.000000
1.819887
2.231837
2.420919
2.440224
2.375177
2.364000
2.358025
2.353311
2.332878
2.350329
2.498816
2.733635
2.809738
3.202817
4.396487
15.129607
70.225751
248.328785
616.594268
1009.562367
1297.959094
1453.549435
1504.468113
1518.075748
1507.510654
1499.317011
1493.005005
1489.456185
1489.486453
1488.279116
1476.289470
1438.167765
1370.135674
1242.346644
1008.682963
651.065080
296.813587
101.949453
28.669856
8.831399
4.262621
2.977413
2.605014
2.559227
2.612146
2.705383
2.631171
2.312623
2.218256
2.165492
2.080598
2.060398
1.975186
1.925336
1.888411
1.924819
1.827907
0.000000
-0.000000
1.612455
1.681935
2.007885
2.166703
2.311429
2.158141
2.119437
2.340710
2.569922
2.546565
2.538706
2.582654
2.628417
2.883777
2.847031
3.078695
7.573023
28.372200
102.714571
293.398421
580.510790
870.602109
1094.824959
1236.380336
1302.836384
1344.345830
1366.814543
1373.556238
1345.003830
1277.616205
1173.188562
1006.895501
792.267605
559.744289
323.544835
153.286527
55.496739
17.512184
6.794268
3.943216
2.932468
2.543787
2.353240
2.318134
2.434454
2.573809
2.494811
2.206784
2.189879
2.017702
1.770589
1.760846
1.848226
1.706467
1.707259
1.839457
1.639824
0.000000
-0.000000
1.185326
1.343850
1.638892
1.733979
1.930394
1.830628
1.807855
2.036115
2.330819
2.324484
2.361472
2.439046
2.465154
2.562766
2.544142
2.520276
2.656975
3.723099
10.207159
30.846566
91.121961
203.180815
353.092203
496.609337
604.230996
678.868926
722.874247
730.313675
671.823915
570.116680
453.152384
322.243129
204.422284
111.433021
52.445203
22.603551
9.422435
4.593260
3.349576
3.116883
2.905734
2.690298
2.360890
2.774962
2.351578
2.312838
2.311030
2.166426
2.122372
2.062845
1.719795
1.577707
1.542135
1.401774
1.363821
1.148952
1.277965
0.000000
-0.000000
1.057659
1.238836
1.478527
1.627709
1.670486
1.714535
1.779252
1.953898
1.993186
1.937693
2.040825
2.233755
2.205901
2.181160
2.034024
2.196525
2.293043
2.256600
2.741215
4.420658
8.979840
19.647247
39.237602
59.878685
88.399774
115.435853
130.311441
132.101686
117.175196
87.709189
59.885335
36.810607
21.540430
11.926376
7.284735
4.731425
3.527741
2.796667
2.717460
2.666812
2.588412
2.603176
2.342823
2.049549
2.144570
1.985977
1.958843
1.813584
1.908603
1.923140