# vtk DataFile Version 2.0
Structured Grid
ASCII

DATASET RECTILINEAR_GRID
DIMENSIONS 59 58 1
X_COORDINATES 59 double
-26.615703
-25.572230
-24.528758
-23.485285
-22.441812
-21.398340
-20.354867
-19.311395
-18.267922
-17.224450
-16.180977
-15.137504
-14.094032
-13.050559
-12.007087
-10.963614
-9.920141
-8.876669
-7.833196
-6.789724
-5.746251
-4.702778
-3.659306
-2.615833
-1.572361
-0.528888
0.514585
1.558057
2.601530
3.645002
4.688475
5.731948
6.775420
7.818893
8.862365
9.905838
10.949311
11.992783
13.036256
14.079728
15.123201
16.166674
17.210146
18.253619
19.297091
20.340564
21.384037
22.427509
23.470982
24.514454
25.557927
26.601399
27.644872
28.688345
29.731817
30.775290
31.818762
32.862235
33.905708

Y_COORDINATES 58 double
-30.023452
-28.983061
-27.942670
-26.902279
-25.861888
-24.821496
-23.781105
-22.740714
-21.700323
-20.659932
-19.619541
-18.579150
-17.538759
-16.498368
-15.457976
-14.417585
-13.377194
-12.336803
-11.296412
-10.256021
-9.215630
-8.175239
-7.134848
-6.094456
-5.054065
-4.013674
-2.973283
-1.932892
-0.892501
0.147890
1.188281
2.228672
3.269064
4.309455
5.349846
6.390237
7.430628
8.471019
9.511410
10.551801
11.592192
12.632584
13.672975
14.713366
15.753757
16.794148
17.834539
18.874930
19.915321
20.955713
21.996104
23.036495
24.076886
25.117277
26.157668
27.198059
28.238450
29.278841

Z_COORDINATES 1 double
0 

POINT_DATA 3422
SCALARS var1 double
LOOKUP_TABLE default
0.000000
0.000000
0.000000
0.000000
0.000000
0.000000
0.000000
0.000000
0.000000
0.000000
0.000000
0.000000
0.000000
0.000000
0.000000
0.000000
0.000000
0.000000
0.000000
0.000000
0.000000
0.000000
0.000000
0.000000
0.000000
0.000000
0.000000
0.000000
0.000000
0.000000
0.000000
0.000000
0.000000
0.000000
0.000000
0.000000
0.000000
0.000000
0.000000
0.000000
0.000000
0.000000
0.000000
0.000000
0.000000
0.000000
0.000000
0.000000
0.000000
0.000000
0.000000
0.000000
0.000000
0.000000
0.000000
0.000000
0.000000
0.000000
0.000000
0.000000
0.000000
0.000000
0.819287
0.767479
0.761286
0.867433
0.784730
0.829032
0.678489
0.572162
0.604537
0.621074
0.609572
0.000000
0.000000
0.000000
0.000000
0.000000
0.000000
0.000000
0.000000
0.000000
0.000000
0.000000
0.000000
0.000000
0.000000
0.000000
0.000000
0.000000
0.000000
0.000000
0.000000
0.000000
0.000000
0.000000
0.000000
0.000000
0.000000
0.000000
0.000000
0.000000
0.000000
0.000000
0.000000
0.000000
0.000000
0.000000
0.000000
0.000000
0.000000
0.000000
0.000000
0.000000
0.000000
0.000000
0.000000
0.000000
0.000000
0.000000
0.000000
1.120085
0.958887
0.776738
0.821888
0.877758
1.008863
0.743641
0.623566
0.772595
0.858682
0.871325
0.929990
0.879705
0.890288
0.999845
0.995750
0.983316
0.851206
0.903786
0.838480
0.828031
0.878151
1.033111
0.941285
1.187729
1.267305
1.473331
1.533624
1.399610
1.418643
1.482308
1.499781
1.631960
1.685895
1.572024
0.000000
0.000000
0.000000
0.000000
0.000000
0.000000
0.000000
0.000000
0.000000
0.000000
0.000000
0.000000
0.000000
0.000000
0.000000
0.000000
0.000000
0.000000
0.000000
0.000000
0.000000
0.000000
0.000000
0.000000
1.219583
1.034814
0.881700
0.893939
0.952135
1.053807
0.888404
0.794124
1.080610
1.195628
1.095954
1.155356
1.158704
1.265092
1.215207
1.078497
1.222967
1.124657
1.204774
1.137750
1.016476
1.047134
1.153480
1.382282
1.503805
1.501408
1.683666
1.830628
1.805534
1.846733
1.962736
2.056787
2.002074
1.842158
1.489188
1.588803
1.713432
1.831045
1.906896
1.549339
1.530035
1.399101
1.469666
1.612914
1.435031
1.231715
1.130542
1.053641
1.205083
1.029949
0.869817
0.771567
0.717613
0.609386
0.000000
0.000000
0.000000
0.000000
0.000000
1.350667
1.288007
1.213748
1.249004
1.304468
1.270852
1.348156
1.306577
1.457755
1.496464
1.225795
1.174890
1.153769
1.249213
1.190654
1.107161
1.075376
1.112042
1.334043
1.291229
1.082709
1.246768
1.396709
1.702198
1.775929
1.539875
1.616656
1.829395
1.880686
1.948310
2.129354
2.210534
2.104092
2.240643
2.106338
2.182751
2.038130
2.233320
1.995059
2.004181
1.852256
1.614879
1.777796
1.698001
1.614712
1.396129
1.370568
1.307460
1.141099
1.077771
0.955073
0.974519
0.859616
0.929500
0.000000
0.000000
0.000000
0.000000
0.000000
1.410124
1.693308
1.441228
1.513260
1.515451
1.449851
1.707985
1.912874
1.839304
1.611642
1.313295
1.297217
1.236768
1.251158
1.127863
1.137099
1.056367
1.119579
1.166568
1.141226
1.078790
1.319797
1.497839
1.839672
1.911851
1.695393
1.609841
2.033565
1.980176
2.108493
2.329668
2.438744
2.157683
2.341985
2.520643
2.618518
2.307985
2.510353
2.225099
2.066893
2.048334
2.061871
1.954254
1.723464
1.749805
1.548021
1.480287
1.526588
1.255741
1.257786
1.102022
1.143162
1.027592
0.896590
0.000000
0.000000
0.000000
0.000000
0.000000
1.423996
1.560539
1.598491
1.672477
1.764576
1.688678
1.850896
2.072640
1.991402
1.700664
1.584011
1.415036
1.280837
1.337823
1.224393
1.107943
1.084789
1.283674
1.232649
1.051206
1.109266
1.464436
1.657386
2.031084
1.993666
1.915417
2.011580
2.306698
2.114685
2.259291
2.442148
2.718789
2.480885
2.708461
2.753625
2.860309
2.854422
2.904932
2.548957
2.425995
2.261280
2.455342
2.192763
2.096536
2.042032
1.838598
1.619707
1.575963
1.567800
1.480254
1.255258
1.301169
1.243825
0.930358
0.000000
0.000000
0.000000
0.000000
0.000000
1.574670
1.590491
1.687906
1.570873
1.836278
1.945908
1.898136
2.169813
2.080249
1.730777
1.797267
1.557774
1.331163
1.423805
1.235190
1.177611
1.279270
1.400582
1.394852
1.192074
1.221451
1.467391
1.742396
1.935265
2.103356
2.373255
2.593632
2.497738
2.334758
2.539229
2.797621
3.086968
2.952045
3.035336
3.091803
2.929702
2.641847
2.804233
2.904169
2.933878
2.696870
2.733572
2.470678
2.328037
2.221088
1.997458
1.915716
1.882424
1.755510
1.493242
1.356241
1.348390
1.389470
1.201433
0.000000
0.000000
0.000000
0.000000
0.000000
2.183330
2.126086
2.138415
2.394257
2.405554
2.325414
2.053054
2.155624
2.242441
1.696299
1.595544
1.569198
1.600265
1.483893
1.366372
1.076788
1.240018
1.505011
1.499847
1.406671
1.545352
1.721676
1.692893
1.816360
2.111011
2.373747
2.709303
2.510588
2.536600
2.920208
3.423575
3.791159
3.618244
3.621558
3.614382
3.369696
1.461883
1.982244
2.914294
3.021653
3.232954
3.253756
2.874638
2.764094
2.481787
2.264817
2.321264
2.394104
2.144394
1.518831
1.531697
1.419201
1.260063
1.346308
0.000000
0.000000
0.000000
0.000000
0.000000
2.536523
2.691570
2.618146
2.564640
2.496951
2.412885
2.251268
2.113184
2.269114
1.859221
1.514610
1.576491
1.672796
1.454645
1.404810
1.104569
0.927416
1.326900
1.767254
2.005006
2.180657
2.438694
2.502114
2.546259
2.814967
2.617524
2.576500
2.600524
2.662428
3.064352
3.671977
4.143562
4.095371
4.560451
4.397782
4.435316
0.919912
1.349912
1.736382
0.402830
1.990067
3.525477
3.250567
3.042054
3.022263
2.759506
2.593946
2.641877
2.274962
1.660916
1.697011
1.587078
1.473044
1.466690
0.000000
0.000000
0.000000
0.000000
0.000000
2.534637
2.788167
2.766149
2.676859
2.615206
2.495687
2.429437
2.306653
2.531411
2.511334
1.991549
1.563973
1.566197
1.581172
1.477685
1.505462
1.663691
2.618660
5.969777
10.764658
14.790590
17.231848
15.891195
13.758112
11.843654
9.655396
7.296563
5.851834
4.539642
3.617846
3.838292
3.868839
3.914887
4.708356
5.002934
5.485579
1.909657
2.023360
0.860957
-0.583978
0.827044
3.823897
3.645528
3.129353
3.530895
3.372193
2.983197
2.695099
2.324016
1.897118
1.800951
1.802451
1.687515
1.605667
0.000000
0.000000
0.000000
0.000000
0.000000
2.800651
2.891346
2.908456
2.906498
2.839471
2.712328
2.724686
2.602096
2.337914
2.358013
2.183342
1.758246
1.837380
1.995457
2.452502
5.218391
11.396023
29.031576
67.981617
115.585493
156.529197
183.400387
187.862547
161.370054
125.604808
94.158512
65.379250
38.452566
21.382247
12.065759
8.260809
6.047359
4.341797
4.172167
4.554936
5.563440
5.559770
4.547374
1.634975
-0.193208
1.633370
4.185874
4.057421
3.479173
3.804166
3.830381
3.426309
3.050799
2.581376
2.296097
2.039172
2.064593
1.843377
1.675784
0.000000
0.000000
0.000000
0.000000
0.000000
3.212177
3.071062
3.029815
3.079430
3.104721
3.034951
2.924252
2.516470
1.774575
2.047068
2.351440
2.300824
3.458949
7.086679
18.984219
51.482650
125.512828
254.564617
419.617186
593.086800
737.333282
829.980527
884.857888
857.209882
812.049150
725.798016
606.175941
470.532885
321.380957
184.474030
77.796709
32.129690
12.901258
5.861458
3.996423
4.657372
5.754448
5.438647
5.251719
4.644476
4.630518
4.513367
4.521595
4.111215
3.966979
3.982074
3.687594
3.408501
2.958751
2.810203
2.564471
2.313522
2.002248
1.774665
0.000000
0.000000
0.000000
0.000000
0.000000
3.517453
3.450799
3.246338
3.508146
3.577006
3.403256
2.266721
1.183523
1.373280
1.916830
2.807876
5.826682
20.993842
69.355779
176.587212
376.213214
623.878659
867.656501
1106.435459
1329.589403
1493.025618
1637.414521
1730.197524
1723.376082
1715.486800
1649.868262
1542.897359
1424.522312
1180.170129
902.715431
616.916614
368.438856
170.889499
54.602290
14.722418
6.487483
5.538645
5.463219
5.924224
5.609070
5.663550
5.398684
4.921313
4.911548
4.201158
3.962201
3.839724
3.373867
3.193036
3.243173
3.054204
2.148671
1.887529
1.766136
0.000000
0.000000
0.000000
0.000000
0.000000
4.075707
3.790315
3.724801
3.649311
3.447421
3.326900
0.330546
-0.022326
1.592724
3.565613
7.178941
39.659235
160.764791
396.348304
715.463834
1067.274421
1324.984900
1572.536425
1777.702106
1903.842316
1988.131923
2074.035672
2096.300978
2088.062896
2084.743057
2079.077854
2052.174883
2049.794225
1954.919933
1820.878950
1567.924119
1271.356866
874.058524
462.635448
169.345942
40.645980
9.778596
6.057359
6.330369
6.057102
6.049459
5.922213
5.483048
5.320277
4.703989
4.214723
3.903877
3.626227
3.802998
3.767611
3.156636
2.315947
2.094755
2.134268
0.000000
0.000000
0.000000
0.000000
0.000000
4.389757
4.290128
4.141456
3.873376
3.095390
4.165468
0.492732
-0.085929
3.038634
8.147251
39.260906
222.517724
596.532962
1042.700740
1450.342249
1735.426097
1913.603718
2029.608500
2065.578854
2033.170362
1976.700999
1936.640305
1885.150369
1847.251669
1838.028348
1863.214486
1913.165756
1995.665501
2083.781733
2159.432863
2167.652076
2079.487657
1839.328476
1369.804609
821.426900
329.439458
75.692916
15.487170
6.978546
6.153786
6.367962
6.334652
5.871861
5.401484
5.029013
4.804959
4.472054
3.866955
3.740223
3.602861
3.172426
2.834617
2.695271
2.453387
0.000000
0.000000
0.000000
0.000000
0.000000
5.159107
4.936863
4.937056
4.528414
2.606357
3.041282
0.712321
0.971257
6.852233
26.336970
184.584753
632.858658
1204.342651
1695.027066
2030.357621
2136.332300
2083.825351
1973.712033
1837.935206
1708.445508
1594.310103
1526.168172
1460.975479
1418.439258
1408.459122
1434.341148
1492.697727
1600.896106
1758.873717
1928.008686
2094.618828
2256.404968
2349.773934
2190.741851
1805.147200
1163.183205
485.987990
107.392700
19.963214
7.332349
6.287222
6.434116
6.232907
5.790041
5.487331
5.625103
5.241423
4.472740
3.953361
3.707449
3.413102
3.445343
3.269012
2.724491
0.000000
0.000000
0.000000
0.000000
4.973584
5.315160
5.102930
5.203381
5.380576
6.665036
7.507861
0.780468
4.756612
18.824228
98.460824
554.371177
1183.246030
1761.499272
2083.420365
2130.011097
1998.729709
1783.500547
1594.908301
1435.108209
1295.699703
1201.408550
1124.412123
1067.651246
1020.255979
1017.708376
1040.958280
1098.292951
1191.281426
1336.022702
1507.072148
1699.886617
1944.411893
2190.561927
2389.332193
2441.746970
2167.039178
1415.917056
531.971584
123.493811
23.383175
7.504450
6.236561
6.302209
6.256199
5.931225
6.066043
5.526563
4.766920
4.248996
4.124695
3.710867
3.661321
3.344753
3.037454
0.000000
0.000000
0.000000
0.000000
5.039654
5.355993
5.293824
5.191896
2.709235
3.720487
4.652534
2.559926
15.323241
72.202638
433.164074
1161.134527
1776.197811
2115.706865
2130.484061
1935.137138
1676.096499
1414.322973
1228.498535
1079.143708
950.803241
864.835225
794.328939
741.322440
709.237048
713.330618
732.553817
779.621142
847.057809
962.397002
1119.352805
1288.078447
1526.232912
1796.303272
2091.512387
2381.537768
2581.564948
2365.765070
1438.648977
539.734265
114.527219
17.981842
6.813030
6.340845
6.213651
6.252656
6.117510
5.473696
4.786965
4.511580
4.381195
3.900773
3.781413
3.371248
3.031555
0.000000
0.000000
0.000000
0.000000
5.464608
5.779998
5.741403
5.498720
1.628446
1.119243
0.085996
10.927963
67.165262
331.111561
1214.828778
1895.973869
2178.188473
2184.192878
1951.971641
1639.651061
1337.622142
1092.378532
917.513704
790.413052
688.252880
604.250624
542.391779
503.464092
484.593612
488.644911
501.659752
532.255567
583.953101
673.884004
795.109608
946.548320
1144.806601
1403.824148
1706.987682
2042.071339
2383.595462
2652.228290
2369.113652
1392.039789
433.188368
68.080883
10.887751
6.107195
5.793791
6.222943
5.884768
5.271091
5.068047
4.890542
4.696196
4.067405
3.787473
3.486581
3.273858
0.000000
0.000000
0.000000
0.000000
5.546152
6.089973
6.257378
5.817374
3.505505
1.655609
2.354223
44.528620
237.541563
1071.750529
1886.473446
2299.789182
2279.859006
2034.246213
1673.201451
1333.815945
1060.025160
839.800609
682.147205
568.295592
482.279901
411.000634
360.389540
332.883071
324.707197
325.826147
337.042272
357.345405
397.228471
460.841860
552.555205
676.501655
834.002048
1062.812146
1346.350157
1659.647169
2027.194441
2441.959353
2685.807118
2270.747957
1153.548977
250.719749
27.663454
7.059827
6.187403
6.235143
6.343013
5.993302
5.759555
5.191811
4.950664
4.261217
3.728864
3.658189
3.527932
0.000000
0.000000
0.000000
0.000000
5.765321
6.418409
6.945606
5.777178
2.671989
1.597530
17.455501
136.833509
693.133498
1788.725144
2311.468036
2379.089817
2137.036920
1759.674533
1377.708108
1056.148196
819.367527
633.395859
496.783699
399.740950
328.019126
269.171112
231.835924
214.458295
205.839706
207.272234
215.566702
232.723045
266.142843
313.237686
385.599289
481.217281
616.604264
803.182872
1053.001847
1342.833365
1694.138994
2128.062404
2561.423292
2638.299708
1947.704073
685.568549
89.948158
11.173532
5.423411
5.935939
6.749798
6.500678
6.129227
5.636898
5.319388
4.680252
4.113123
3.897276
3.801786
0.000000
0.000000
0.000000
0.000000
6.080808
6.775973
7.135356
3.114603
1.346398
2.630086
48.634950
304.559192
1417.865516
2164.266621
2426.781455
2243.860099
1883.102349
1485.749881
1130.556890
842.763397
632.544274
472.216014
354.665751
269.536837
209.559786
170.052493
144.076041
128.398558
122.231719
122.222196
126.544003
141.973711
167.728723
205.947748
261.807289
339.945532
452.627988
601.083612
815.497441
1092.544410
1423.056935
1830.472620
2321.443350
2681.223483
2477.559970
1330.622064
275.417131
28.090361
6.760920
6.328289
6.595513
6.648516
5.883135
5.655442
5.568409
5.205732
4.790885
3.994541
3.765444
0.000000
0.000000
0.000000
0.000000
5.957229
6.693198
6.868593
1.335332
1.502262
9.411626
106.097382
605.707803
1942.725977
2416.704419
2386.059014
2038.924384
1637.622889
1255.377832
927.227912
675.420100
487.981234
348.465601
249.479307
178.432279
131.544933
101.537249
83.800108
72.418491
67.479110
65.276147
67.677197
79.189609
98.701277
127.715503
170.501048
231.214774
325.347019
455.541271
631.670947
869.466309
1181.208260
1571.587803
2063.344006
2535.329998
2710.109552
1946.646820
612.724648
75.362820
10.401183
6.339461
6.476187
6.838308
6.351465
5.945843
5.352761
5.373978
4.761422
4.017286
4.005687
0.000000
0.000000
0.000000
0.000000
6.290661
6.825495
6.996691
0.630136
0.786313
18.136693
184.022525
1076.444824
2172.979221
2501.776690
2275.635107
1857.628791
1439.534952
1067.060235
762.084038
536.340334
372.113562
252.814306
173.347470
117.311513
81.441875
58.898422
45.294213
38.079215
34.022208
31.858346
33.736071
40.510262
53.902179
74.899396
106.548863
154.536376
228.933137
339.428425
492.910295
699.223441
975.498123
1353.721555
1813.417026
2326.699566
2742.470601
2392.884557
1052.185621
175.036733
18.513328
6.494944
6.365545
7.086897
6.796440
4.652347
4.085764
5.204797
4.955758
4.301580
4.160479
0.000000
0.000000
0.000000
0.000000
6.389073
6.608270
6.752528
1.178899
0.430421
35.188951
266.518635
1593.258087
2341.272862
2498.327442
2147.999136
1689.859463
1271.322482
908.946860
631.028709
428.274115
283.896176
184.718708
118.202789
75.174480
48.313385
32.025856
22.551581
17.779384
14.675061
13.808770
15.618880
19.917191
28.598600
42.950447
66.321810
103.376750
161.727823
246.826464
379.387136
570.620887
823.524331
1173.439778
1615.560694
2146.558941
2651.225530
2589.805698
1467.781021
333.290232
35.412886
7.792370
6.450737
7.058194
6.964963
3.701731
2.902807
4.930409
5.457760
4.779866
4.215734
0.000000
0.000000
0.000000
0.000000
6.679155
6.756584
6.969198
2.017926
2.042772
50.959150
362.933655
1828.875169
2480.541461
2472.712165
2028.673545
1567.249734
1149.642390
798.102286
539.910730
354.234204
223.870231
138.766723
83.194472
49.193024
28.189807
16.718621
10.095710
6.617160
5.030152
5.191191
6.511357
9.354516
15.234907
26.084802
43.471491
72.283269
117.643104
184.422903
296.885534
464.125470
699.994728
1013.195658
1423.036603
1969.229154
2553.042625
2695.881154
1751.363614
515.850024
62.558079
9.507434
6.406319
6.924341
6.833212
4.760728
4.082893
5.055459
5.721130
5.027157
4.047443
0.000000
0.000000
0.000000
0.000000
6.771392
6.920465
7.259220
3.235646
6.532913
60.793523
496.763314
1898.916762
2573.701798
2402.924136
1912.676365
1461.027338
1060.858937
722.340251
470.281318
296.324875
181.437608
107.658393
61.513348
32.547650
16.519263
8.301036
3.859083
1.685648
1.213178
1.590821
2.314856
3.861944
7.808621
15.882920
30.062751
52.532405
87.570315
145.437309
241.724157
389.078252
613.457797
910.228799
1292.373019
1816.326884
2413.429539
2694.312609
1922.664483
649.566388
95.307841
11.956160
5.759167
7.040567
6.719940
6.142184
5.572816
5.514929
5.669897
4.715123
3.912636
0.000000
0.000000
0.000000
0.000000
6.610928
6.644400
7.328228
4.738217
9.533876
56.997629
700.170309
1910.151217
2591.005967
2323.159190
1839.160556
1387.582526
994.929022
669.341448
423.346289
258.669299
153.692062
86.085597
46.276095
22.899733
10.360897
4.230337
1.266731
0.219813
0.126169
0.305450
0.675853
1.641313
4.108280
9.354758
19.496358
38.699978
69.802260
121.134539
208.619828
345.946120
555.007548
836.314512
1201.137707
1720.384207
2305.213669
2635.936551
1891.383023
623.240166
105.825787
14.908367
5.439417
7.100146
7.088067
6.712536
6.371877
6.051839
5.504779
4.869059
4.098015
0.000000
0.000000
-0.000000
-0.000000
6.913309
7.022052
7.487206
6.133856
10.995064
47.812837
797.059288
1910.485140
2588.314245
2293.166091
1781.760482
1329.861517
946.991119
630.245842
393.960431
241.633479
139.333744
75.591271
38.306360
18.342085
7.673226
2.790742
0.614047
0.042945
0.012909
0.011421
0.064146
0.624347
2.108256
6.379523
14.242100
31.512761
60.996251
108.120512
189.448925
317.726956
515.962561
787.101638
1147.181325
1654.600419
2227.668640
2441.373661
1548.850558
490.535160
112.226674
17.804665
5.426732
6.453172
6.886685
6.768191
6.504975
6.065146
5.475991
5.521830
4.295323
0.000000
0.000000
-0.000000
-0.000000
6.854130
7.601431
7.988570
7.701921
10.472708
62.428995
804.326862
1896.321480
2599.027448
2268.346296
1747.331320
1305.023041
925.657875
613.003718
387.843562
236.877422
133.135264
71.139158
35.969296
16.756222
7.115111
2.610775
0.693552
0.149375
0.007095
-0.142687
-0.278194
0.051018
1.453577
5.047071
12.596586
28.386918
56.367965
102.464257
181.087402
306.152271
504.771987
783.389547
1160.096381
1641.645922
2189.525039
2072.371232
1049.735407
460.371109
120.857699
19.155335
5.381367
6.088020
6.756023
6.758472
6.383810
5.999873
5.509595
4.811106
4.191057
0.000000
0.000000
-0.000000
-0.000000
6.637698
7.351349
7.929221
8.452075
6.883276
61.823308
707.345425
1820.697649
2637.365051
2305.696041
1785.333132
1318.566304
928.825523
624.615220
398.378937
242.413053
138.675200
73.833383
38.184054
18.979803
8.468645
3.496360
1.251044
0.369493
-0.025616
-0.297373
-0.437500
-0.074659
1.345343
5.167458
12.904357
28.498144
55.704520
104.565557
186.627760
312.481871
508.266500
792.786034
1177.858992
1658.549731
2194.688629
1845.750895
725.744556
447.187223
149.518855
20.685703
5.390893
5.775807
6.545699
6.404557
6.243836
6.022754
5.533215
4.776974
4.239948
3.825951
0.000000
-0.000000
-0.000000
6.637260
7.116865
7.470331
7.922091
5.091906
51.507274
556.941172
1667.653289
2693.318040
2357.536815
1843.284636
1367.137248
964.490694
653.732051
425.281055
264.055766
152.644908
84.604578
44.644048
24.185075
12.051801
5.752339
2.641434
1.091852
0.373978
0.220975
0.388723
0.828285
2.408388
7.020525
15.735063
33.591122
63.198640
116.500950
202.293215
334.034879
534.903302
829.430925
1222.874797
1707.616846
2057.496561
1670.833868
655.778684
474.959153
178.830633
20.280012
5.436328
5.598419
6.368238
6.008916
5.999788
5.888957
5.245786
4.683537
4.121690
3.677765
0.000000
-0.000000
-0.000000
6.400807
6.749837
7.167170
7.331992
5.501502
37.369939
388.552884
1434.898388
2619.806510
2419.053527
1938.392405
1453.098462
1038.636471
708.439159
471.701230
301.932042
182.109713
103.557312
57.933523
34.101652
18.720204
10.526546
5.778338
3.282262
2.020880
1.898760
2.158461
3.363421
6.177183
11.358744
22.302841
44.862653
79.614784
137.778047
231.940249
377.432719
597.370902
902.131004
1307.074330
1802.353264
2006.183396
1489.912590
816.288627
453.332612
146.370306
17.495503
5.806085
5.706973
6.162801
6.147044
6.118292
5.517700
5.162234
4.660257
4.164564
3.364269
0.000000
-0.000000
-0.000000
5.957524
6.448363
6.844996
7.010998
7.223615
24.600290
231.799362
1111.887718
2378.685719
2463.154811
2088.003960
1593.941537
1144.182281
796.262006
538.670469
354.607375
225.735560
134.960087
81.511685
51.210588
31.408627
19.047443
11.681113
8.201992
6.299430
6.103833
6.882897
9.374340
13.589300
20.672767
35.399607
62.978000
104.419626
171.975683
278.671776
446.090526
686.305702
1011.881931
1429.587396
1913.606926
1949.231799
1408.794344
1016.180542
523.242712
107.690098
14.248672
5.828470
5.829380
5.973369
5.963132
5.863116
5.336532
5.009434
4.709502
4.021084
3.296091
0.000000
-0.000000
-0.000000
5.650117
6.304510
6.703853
6.863508
6.882807
15.259814
111.313444
690.033302
2069.460347
2506.723390
2271.416030
1771.646151
1302.542387
921.197464
633.001271
428.689159
284.262819
179.885136
118.674961
78.958451
52.951646
34.611319
24.328015
18.862548
16.385734
15.297410
16.560639
20.942788
27.658340
38.373674
58.069520
92.209165
143.977702
225.925864
349.784604
534.221022
803.935115
1148.468181
1573.122687
2052.711929
1934.702577
1563.593855
1056.516080
437.907141
71.368965
11.673199
5.065698
5.507342
5.913317
6.057185
5.389676
5.018917
4.782716
4.523147
4.083444
3.551071
0.000000
-0.000000
-0.000000
5.536957
6.002264
6.221861
6.420916
6.286204
9.645176
43.140785
307.657181
1655.633740
2503.815792
2481.210745
1986.218011
1498.422549
1080.227875
765.337493
531.543877
362.689027
246.182879
170.048233
119.335378
84.028157
60.755389
46.518217
38.649635
34.893041
33.241096
35.445006
40.823267
51.171988
68.007650
94.522396
137.259366
206.988448
313.137091
461.506120
673.231113
957.758980
1328.387145
1774.947270
2163.254372
1959.064214
1589.855210
939.626166
281.356129
43.077278
9.559704
5.259618
5.622726
5.935956
5.773377
5.146487
4.625633
4.226116
4.175170
3.852576
3.470113
0.000000
-0.000000
-0.000000
5.333107
5.662949
5.942434
6.074062
5.998411
7.158138
14.806906
108.420212
1079.386820
2246.235227
2628.277232
2240.681378
1740.145231
1290.699345
940.584260
674.627027
475.120631
338.419232
245.587618
178.546766
132.606471
103.509581
83.114371
71.302848
64.925762
62.684109
67.115689
75.471053
91.711268
116.902430
152.704687
206.950771
293.844861
419.735050
596.683296
835.288299
1146.481650
1546.475500
1972.009491
2240.853725
2026.232371
1427.157044
689.257130
153.467704
24.909477
7.120733
5.433489
5.412763
5.368374
5.365710
4.989650
4.637886
4.256854
3.981202
3.626954
3.345078
0.000000
-0.000000
-0.000000
5.026198
5.175131
5.601956
5.892206
5.751630
5.673122
6.765310
42.432417
522.021845
1633.041632
2634.577647
2488.675364
2023.610581
1563.905266
1169.477846
864.392031
638.903667
474.794720
353.436596
266.256223
205.619704
168.078847
139.599774
122.851897
114.648815
111.249200
118.256503
131.248105
154.524796
191.641684
241.818852
309.422722
415.265203
563.847056
779.580828
1049.776048
1382.758095
1798.132703
2149.277419
2270.347735
1831.974749
1093.413053
387.742037
71.060191
13.594251
5.649423
5.394493
5.288940
4.937636
4.835287
4.702998
4.353344
4.193540
3.807310
3.235110
3.163033
0.000000
-0.000000
-0.000000
4.635892
4.660448
5.252165
5.602540
5.588705
5.343798
5.393104
17.311309
171.531939
839.373935
2278.172175
2600.287658
2348.319867
1914.846109
1473.703020
1117.181888
849.966058
656.520382
510.918037
400.419525
316.499492
261.472101
227.779847
206.622623
191.613762
188.922773
198.067984
216.855845
249.872205
298.780672
363.262379
453.251744
587.455397
767.539557
1016.809403
1317.287031
1681.849189
2043.149177
2253.707269
2069.837254
1417.647648
721.701893
182.530365
29.207457
8.259530
5.273886
5.180565
5.063536
4.612365
4.612925
4.478473
4.136028
4.060112
3.729339
3.296171
3.132706
0.000000
-0.000000
-0.000000
4.089939
4.509279
4.850876
5.184394
5.340559
5.317748
5.059524
8.486459
41.742019
275.415899
1387.899811
2353.256629
2568.298775
2278.637900
1848.223812
1456.433494
1140.826804
899.537798
714.599439
575.511179
475.866259
405.518767
362.211662
333.740997
313.069223
312.996210
320.737248
350.450936
391.917871
448.263386
532.554170
652.376510
816.158284
1040.657388
1317.671684
1660.568553
2010.650539
2245.290648
2170.038587
1587.605246
961.288631
360.975275
68.118878
13.922784
5.623534
4.928119
5.103664
5.075818
4.564148
4.314730
4.068113
3.721018
3.727794
3.784778
3.306835
3.180391
0.000000
-0.000000
-0.000000
3.620668
4.178896
4.587066
4.827008
4.971069
5.137908
4.949627
5.477470
10.656161
50.206240
437.612771
1579.613729
2454.663408
2575.049459
2276.391485
1873.155397
1518.570588
1230.616581
990.343635
809.857076
692.268540
610.669389
554.009120
515.127198
501.299917
495.730963
505.817070
532.482094
586.443406
658.436476
768.860612
927.707559
1134.459487
1390.996523
1698.284810
2023.482956
2263.875708
2235.923658
1749.885256
1113.024470
548.191230
131.922560
25.567741
8.436254
5.088076
4.843544
4.928792
4.877929
4.823227
4.258313
3.845713
3.690118
3.637157
3.324159
2.917444
2.715283
0.000000
-0.000000
-0.000000
3.217670
3.764658
4.203045
4.508257
4.765636
4.689423
4.656482
4.630269
5.079157
8.996585
74.610121
566.397788
1581.375087
2505.482064
2576.996009
2324.350543
2000.070663
1682.904426
1402.804312
1174.997189
1015.635559
903.251245
828.017238
773.746978
747.925825
740.240604
757.396516
787.432459
855.383230
953.138369
1100.860320
1309.913719
1553.323653
1829.646901
2113.372594
2304.057223
2245.060121
1811.712885
1214.762062
645.514745
216.189271
46.024064
11.971648
5.600896
4.612790
4.847574
4.745802
4.719078
4.618428
4.106051
3.622801
3.398125
3.374219
3.042124
2.826927
2.678812
0.000000
-0.000000
2.808153
3.026588
3.339139
3.775139
4.227877
4.498940
4.394516
4.378474
4.292903
4.229258
4.594506
12.077463
98.953222
540.526439
1660.239727
2423.621242
2602.916325
2473.021646
2198.575300
1921.853542
1670.629346
1477.603806
1324.377946
1228.525299
1146.797699
1106.875762
1092.440123
1122.092692
1172.189492
1246.416546
1366.741635
1545.168384
1782.157360
2029.005471
2234.319568
2336.258210
2211.157038
1805.234426
1268.468675
746.604356
294.873547
67.531944
16.205413
6.423635
4.552311
4.364814
4.287802
4.370372
4.475713
4.267027
4.068479
3.747372
3.289009
3.404240
3.365398
3.009554
2.591657
0.000000
-0.000000
2.789643
2.910475
3.150083
3.555835
3.917623
4.094815
4.293273
4.259935
4.089784
4.129769
3.775733
4.100517
11.991953
72.145298
361.924467
1463.864436
2308.846022
2651.093701
2640.839628
2454.560658
2244.933106
2030.054038
1871.965955
1752.347847
1667.183929
1610.647987
1583.129515
1599.238126
1659.095597
1749.359459
1892.554240
2085.417018
2271.261492
2378.133382
2335.631637
2102.309461
1680.959553
1217.396517
763.437728
337.318993
93.428671
19.404213
6.144454
4.456367
4.430931
4.370945
4.106400
3.918705
3.861220
3.671209
3.614979
3.580527
3.386031
3.181580
3.023344
2.745557
2.203154
0.000000
-0.000000
2.706405
2.885211
3.034649
3.327488
3.549453
3.577487
3.728649
3.776834
3.657076
3.630254
3.595075
3.465895
3.765347
5.976213
27.240983
254.101711
944.049569
1836.646819
2435.303610
2637.023691
2635.419169
2532.244584
2408.785769
2311.689718
2237.189877
2193.148312
2174.374481
2169.195780
2213.458136
2282.071731
2351.206386
2391.617048
2340.206275
2174.024560
1844.955023
1432.790914
1009.873263
637.684697
300.393867
104.129585
29.209089
9.323356
4.714872
4.283454
4.241321
4.290005
3.975538
3.788342
3.764992
3.402828
3.235778
3.122003
3.109922
2.909903
2.486878
2.264050
2.082799
0.000000
-0.000000
2.466616
2.505780
2.628838
3.027916
3.312078
3.387324
3.521820
3.554492
3.516418
3.418870
3.509720
3.383326
2.915696
2.661698
2.857725
18.095234
141.582806
540.462638
1259.180615
1869.738914
2268.329550
2474.744092
2549.278428
2555.816692
2532.997624
2529.191264
2521.054358
2474.758857
2430.673212
2343.920276
2205.409195
1993.111291
1705.733588
1397.047412
1077.812332
778.976279
491.922709
252.569839
95.992124
31.310541
9.534013
4.747983
4.140344
4.390218
4.142499
4.085157
3.743977
3.529020
3.368479
3.018033
2.899985
2.938351
2.888309
2.652121
2.227310
2.156620
2.152284
0.000000
-0.000000
2.202085
2.216507
2.248035
2.724357
3.091732
3.154076
3.301256
3.519327
3.544588
3.466549
3.355798
3.240449
2.848472
2.780532
2.373798
3.321489
10.606114
52.168174
218.692667
592.398176
988.398252
1359.063176
1649.652296
1846.151447
1927.851336
1987.115429
1997.920473
1944.571445
1787.570822
1607.926597
1369.369018
1149.013208
930.484154
709.594390
509.766309
330.335278
174.579868
67.540892
22.477940
8.449465
4.427350
3.999641
3.538089
3.829411
3.914390
3.694341
3.472941
3.329370
3.134138
3.060741
2.751910
2.919131
2.711571
2.379978
2.139772
1.940501
1.778762
0.000000
-0.000000
1.996024
2.006576
2.037710
2.436969
2.722103
2.817852
2.820499
3.004988
3.201187
3.272574
3.171398
2.969516
2.817879
2.707218
2.409634
2.519083
3.197574
4.607703
18.160901
65.203655
158.042285
304.024566
494.899293
626.453636
725.938673
793.762335
823.169840
833.300388
788.378912
720.944916
634.365340
546.732670
399.360851
265.322666
148.267510