# vtk DataFile Version 2.0
Structured Grid
ASCII

DATASET RECTILINEAR_GRID
DIMENSIONS 59 58 1
X_COORDINATES 59 double
-26.809250
-25.765777
-24.722304
-23.678832
-22.635359
-21.591887
-20.548414
-19.504942
-18.461469
-17.417996
-16.374524
-15.331051
-14.287579
-13.244106
-12.200633
-11.157161
-10.113688
-9.070216
-8.026743
-6.983270
-5.939798
-4.896325
-3.852853
-2.809380
-1.765907
-0.722435
0.321038
1.364510
2.407983
3.451456
4.494928
5.538401
6.581873
7.625346
8.668819
9.712291
10.755764
11.799236
12.842709
13.886182
14.929654
15.973127
17.016599
18.060072
19.103545
20.147017
21.190490
22.233962
23.277435
24.320907
25.364380
26.407853
27.451325
28.494798
29.538270
30.581743
31.625216
32.668688
33.712161

Y_COORDINATES 58 double
-29.858640
-28.818249
-27.777858
-26.737467
-25.697076
-24.656685
-23.616293
-22.575902
-21.535511
-20.495120
-19.454729
-18.414338
-17.373947
-16.333556
-15.293165
-14.252773
-13.212382
-12.171991
-11.131600
-10.091209
-9.050818
-8.010427
-6.970036
-5.929645
-4.889253
-3.848862
-2.808471
-1.768080
-0.727689
0.312702
1.353093
2.393484
3.433875
4.474267
5.514658
6.555049
7.595440
8.635831
9.676222
10.716613
11.757004
12.797396
13.837787
14.878178
15.918569
16.958960
17.999351
19.039742
20.080133
21.120524
22.160916
23.201307
24.241698
25.282089
26.322480
27.362871
28.403262
29.443653

Z_COORDINATES 1 double
0 

POINT_DATA 3422
SCALARS var1 double
LOOKUP_TABLE default
0.000000
0.000000
0.000000
0.000000
0.000000
0.000000
0.000000
0.000000
0.000000
0.000000
0.000000
0.000000
0.000000
0.000000
0.000000
0.000000
0.000000
0.000000
0.000000
0.000000
0.000000
0.000000
0.000000
0.000000
0.000000
0.000000
0.000000
0.000000
0.000000
0.000000
0.000000
0.000000
0.000000
0.000000
0.000000
0.000000
0.000000
0.000000
0.000000
0.000000
0.000000
0.000000
0.000000
0.000000
0.000000
0.000000
0.000000
0.000000
0.000000
0.000000
0.000000
0.000000
0.000000
0.000000
0.000000
0.000000
0.000000
0.000000
0.000000
0.000000
0.000000
0.000000
0.808864
0.756328
0.748136
0.852558
0.770412
0.811990
0.662412
0.555584
0.584209
0.599701
0.587252
0.000000
0.000000
0.000000
0.000000
0.000000
0.000000
0.000000
0.000000
0.000000
0.000000
0.000000
0.000000
0.000000
0.000000
0.000000
0.000000
0.000000
0.000000
0.000000
0.000000
0.000000
0.000000
0.000000
0.000000
0.000000
0.000000
0.000000
0.000000
0.000000
0.000000
0.000000
0.000000
0.000000
0.000000
0.000000
0.000000
0.000000
0.000000
0.000000
0.000000
0.000000
0.000000
0.000000
0.000000
0.000000
0.000000
0.000000
0.000000
1.106634
0.946258
0.764270
0.807917
0.862329
0.989615
0.725857
0.606227
0.749196
0.832947
0.843286
0.896686
0.845166
0.852956
0.957403
0.951343
0.938697
0.807157
0.857982
0.794728
0.784495
0.832581
0.985978
0.896134
1.140646
1.220061
1.423344
1.485753
1.357971
1.379037
1.443309
1.462535
1.596293
1.651668
1.541394
0.000000
0.000000
0.000000
0.000000
0.000000
0.000000
0.000000
0.000000
0.000000
0.000000
0.000000
0.000000
0.000000
0.000000
0.000000
0.000000
0.000000
0.000000
0.000000
0.000000
0.000000
0.000000
0.000000
0.000000
1.205348
1.021490
0.868763
0.879543
0.935281
1.033113
0.866633
0.772159
1.051512
1.163229
1.062137
1.116522
1.116276
1.216536
1.163064
1.027946
1.169130
1.070317
1.148535
1.081419
0.961844
0.992047
1.097982
1.321848
1.444246
1.445375
1.626499
1.774522
1.753353
1.796849
1.913137
2.008346
1.958980
1.804601
1.458687
1.559196
1.684561
1.802541
1.879405
1.527889
1.510240
1.381854
1.452912
1.595952
1.420696
1.220117
1.120483
1.044775
1.195481
1.022190
0.863613
0.766358
0.713027
0.605695
0.000000
0.000000
0.000000
0.000000
0.000000
1.336059
1.272396
1.196764
1.230015
1.282855
1.246803
1.318997
1.275327
1.422485
1.458905
1.188620
1.134813
1.109358
1.197538
1.135355
1.049827
1.017461
1.050881
1.267719
1.223740
1.018750
1.182576
1.331823
1.631119
1.706471
1.477248
1.555947
1.768416
1.822666
1.893441
2.073453
2.157206
2.056392
2.194859
2.065698
2.144562
2.004206
2.198965
1.966045
1.977317
1.828842
1.595273
1.757903
1.680226
1.598776
1.383127
1.358662
1.296705
1.132146
1.069785
0.948395
0.968091
0.854256
0.924016
0.000000
0.000000
0.000000
0.000000
0.000000
1.395180
1.673766
1.421481
1.490619
1.490252
1.423342
1.675611
1.874182
1.797046
1.569864
1.271464
1.251257
1.187349
1.195663
1.068884
1.074126
0.991529
1.050496
1.095204
1.071446
1.009217
1.247199
1.426049
1.760358
1.834045
1.623572
1.543898
1.963906
1.915271
2.046416
2.267346
2.378881
2.106451
2.292239
2.472697
2.572755
2.269405
2.471958
2.192906
2.039043
2.022496
2.037555
1.932694
1.705502
1.732694
1.533813
1.467541
1.514215
1.246110
1.248705
1.094510
1.135816
1.021361
0.891461
0.000000
0.000000
0.000000
0.000000
0.000000
1.409189
1.542880
1.578050
1.649098
1.736850
1.658796
1.815653
2.031267
1.944463
1.655072
1.534467
1.362223
1.225565
1.276754
1.158661
1.041128
1.012640
1.203918
1.151669
0.975734
1.031883
1.382016
1.576680
1.940843
1.905112
1.833614
1.931880
2.225825
2.042387
2.189913
2.373837
2.651550
2.421554
2.650344
2.700386
2.809112
2.806564
2.860516
2.512669
2.393804
2.233014
2.427062
2.168736
2.075170
2.022528
1.822075
1.605980
1.563419
1.556075
1.469828
1.246942
1.293063
1.236514
0.925224
0.000000
0.000000
0.000000
0.000000
0.000000
1.558435
1.572853
1.666519
1.549382
1.807488
1.911968
1.860115
2.123357
2.027892
1.680377
1.739752
1.497293
1.267841
1.352887
1.161794
1.102407
1.195358
1.308377
1.301041
1.104230
1.135712
1.377932
1.649280
1.840313
2.008494
2.278141
2.498341
2.409787
2.256235
2.462195
2.719095
3.009790
2.882523
2.970033
3.032322
2.876662
2.597644
2.760845
2.862412
2.895112
2.663556
2.702284
2.444016
2.304640
2.200112
1.979737
1.899770
1.867772
1.742706
1.483009
1.347505
1.340222
1.381548
1.195015
0.000000
0.000000
0.000000
0.000000
0.000000
2.163813
2.104100
2.112839
2.363918
2.369704
2.285266
2.010964
2.106094
2.183193
1.640560
1.536329
1.501422
1.523764
1.402392
1.281120
0.994882
1.145379
1.400501
1.396866
1.307522
1.445416
1.622942
1.595399
1.720971
2.012880
2.276100
2.611392
2.422675
2.453419
2.835407
3.331478
3.699129
3.535309
3.545135
3.545324
3.309836
1.436272
1.951700
2.872999
2.981366
3.193520
3.217210
2.844293
2.736981
2.458857
2.245237
2.302514
2.376005
2.129185
1.508767
1.522157
1.410875
1.253103
1.339326
0.000000
0.000000
0.000000
0.000000
0.000000
2.514997
2.665917
2.589238
2.531484
2.458881
2.369604
2.204369
2.061003
2.205281
1.796865
1.452760
1.501910
1.586730
1.364351
1.309485
1.013701
0.837091
1.226123
1.659342
1.893366
2.070135
2.331319
2.397542
2.441259
2.708795
2.520351
2.485187
2.514430
2.579308
2.977280
3.576364
4.045760
4.004048
4.468165
4.314814
4.359087
0.903368
1.329360
1.712089
0.397061
1.965441
3.486497
3.217078
3.012796
2.995108
2.736330
2.573586
2.622445
2.259306
1.650301
1.686845
1.578141
1.465189
1.459319
0.000000
0.000000
0.000000
0.000000
0.000000
2.511946
2.761379
2.736862
2.643169
2.575799
2.450465
2.378457
2.250784
2.460804
2.432338
1.910731
1.480598
1.472694
1.478195
1.370576
1.397031
1.553992
2.494069
5.820331
10.605867
14.659088
17.127386
15.792498
13.645765
11.708712
9.516490
7.162744
5.728038
4.434461
3.525400
3.743704
3.777735
3.828656
4.615723
4.911779
5.393572
1.877183
1.992673
0.848680
-0.573602
0.816566
3.782371
3.608759
3.099885
3.500001
3.344658
2.960469
2.675938
2.308590
1.885356
1.790492
1.792676
1.678978
1.597982
0.000000
0.000000
0.000000
0.000000
0.000000
2.776442
2.863975
2.877276
2.870157
2.797364
2.663369
2.667480
2.538110
2.263563
2.279749
2.092228
1.658882
1.728126
1.877585
2.322409
5.055528
11.221328
28.945413
68.318878
116.478798
157.799910
184.560663
188.642556
161.772475
125.786416
94.162071
65.243100
38.271595
21.191640
11.901993
8.114241
5.927660
4.251863
4.090827
4.471821
5.470515
5.472843
4.479996
1.611957
-0.190404
1.613756
4.141308
4.017422
3.447329
3.771821
3.800026
3.401080
3.029936
2.564915
2.282245
2.027725
2.053800
1.834504
1.668132
0.000000
0.000000
0.000000
0.000000
0.000000
3.187357
3.043696
2.997561
3.040272
3.057774
2.979166
2.860096
2.449886
1.709982
1.968769
2.248686
2.180569
3.316561
6.913699
18.814168
51.481808
126.189525
256.518071
422.744628
596.562636
740.029289
831.214060
884.401997
855.443457
809.180080
722.323081
602.601786
467.255369
318.837858
182.870013
77.029107
31.746178
12.707813
5.759639
3.924697
4.579598
5.665682
5.360110
5.181778
4.587490
4.578355
4.466614
4.478295
4.074786
3.934415
3.951654
3.661450
3.386128
2.940687
2.793972
2.550737
2.302006
1.993096
1.767072
0.000000
0.000000
0.000000
0.000000
0.000000
3.491047
3.420317
3.212988
3.465091
3.523639
3.341425
2.213625
1.142404
1.317368
1.832671
2.686739
5.663439
20.811205
69.451904
177.665390
379.194712
628.664442
872.735682
1110.464868
1331.523608
1492.274519
1633.739673
1723.781076
1714.862465
1704.904622
1637.877981
1530.195876
1411.626937
1168.744704
893.520426
610.391754
364.436769
168.973844
53.945027
14.521176
6.389050
5.455220
5.386182
5.847405
5.541952
5.601586
5.344423
4.875731
4.869408
4.168090
3.933413
3.813793
3.352965
3.174409
3.225182
3.038294
2.138526
1.879277
1.758898
0.000000
0.000000
0.000000
0.000000
0.000000
4.044602
3.756551
3.687532
3.604524
3.395185
3.264162
0.320342
-0.020215
1.523030
3.445083
7.013743
39.538346
161.570739
399.475280
721.749801
1075.519098
1331.917084
1576.642716
1778.447843
1901.319344
1982.519735
2065.402368
2085.071514
2074.554979
2068.938185
2061.056323
2032.484421
2028.675649
1933.690698
1800.280678
1549.724644
1256.419538
863.726983
457.165748
167.315057
40.135081
9.646412
5.976252
6.251132
5.987040
5.985513
5.864814
5.434262
5.276583
4.668601
4.185784
3.879052
3.604727
3.781777
3.747615
3.141312
2.305798
2.086243
2.126047
0.000000
0.000000
0.000000
0.000000
0.000000
4.359072
4.254152
4.099444
3.824501
3.045650
4.096629
0.482319
-0.075373
2.930742
7.978732
39.127355
223.806678
601.637320
1052.049981
1461.287208
1744.103010
1918.360826
2030.494212
2063.088561
2028.002248
1969.327112
1927.212297
1873.806478
1833.960226
1822.605194
1845.416558
1893.011191
1973.120470
2059.033889
2132.893452
2140.444743
2053.127752
1815.915743
1352.480606
811.134202
325.343959
74.752218
15.293584
6.894188
6.085137
6.303216
6.275879
5.822241
5.359768
4.993269
4.773415
4.445118
3.845429
3.720803
3.585225
3.158244
2.822811
2.684711
2.444389
0.000000
0.000000
0.000000
0.000000
0.000000
5.125738
4.898982
4.890251
4.472935
2.567046
2.992099
0.692286
0.932560
6.698148
26.160336
185.495801
638.272951
1215.145719
1707.645635
2040.658977
2142.478356
2086.247852
1973.275390
1835.363637
1704.089863
1588.393372
1518.536142
1451.678568
1407.424129
1395.602846
1419.459677
1475.663636
1581.314585
1736.275882
1902.407068
2066.279307
2225.608720
2317.717707
2161.111188
1781.088525
1147.972735
479.762015
106.045606
19.722761
7.251911
6.225480
6.377004
6.182909
5.748037
5.450475
5.589380
5.211115
4.449103
3.934183
3.690679
3.398853
3.431449
3.256717
2.715292
0.000000
0.000000
0.000000
0.000000
4.945925
5.280279
5.064615
5.155428
5.317824
6.559739
7.382360
0.755201
4.641580
18.645691
98.670798
558.759214
1193.958068
1775.774045
2095.870480
2138.722637
2004.017659
1786.064838
1595.257723
1433.736739
1292.887078
1197.082494
1118.619406
1060.314422
1011.583569
1007.439084
1029.089948
1084.572433
1175.389477
1317.372852
1485.381427
1675.007239
1915.787926
2158.490782
2354.779752
2407.077942
2136.990856
1396.796866
524.991600
121.934920
23.111502
7.430301
6.183848
6.254771
6.213463
5.893877
6.030215
5.497005
4.744127
4.230151
4.107002
3.696053
3.647583
3.333768
3.028586
0.000000
0.000000
0.000000
0.000000
5.012272
5.320721
5.253849
5.142585
2.678513
3.645351
4.509761
2.501456
15.164232
72.237078
436.178157
1171.562979
1791.812027
2130.896930
2142.183866
1943.304940
1681.524487
1417.503331
1229.720998
1078.786879
949.135328
861.834977
790.087956
735.829498
702.565148
705.332742
723.323348
768.868529
834.620933
947.654156
1101.771400
1267.587717
1501.934249
1767.996114
2059.138627
2345.544213
2543.646580
2332.088537
1418.812776
532.538987
113.086304
17.787080
6.756162
6.296699
6.174352
6.217256
6.085389
5.447791
4.766741
4.493315
4.364010
3.886941
3.769078
3.361583
3.023648
0.000000
0.000000
0.000000
0.000000
5.437674
5.743722
5.698275
5.446727
1.610976
1.088430
0.008172
10.819254
67.202716
333.180598
1225.648456
1913.467766
2196.211952
2199.100213
1963.325865
1647.910398
1343.275173
1095.890338
919.287638
790.742796
687.316172
602.199091
539.323101
499.370592
479.534478
482.586086
494.612431
524.085654
574.428736
662.461353
781.342028
930.053687
1124.995450
1379.944088
1678.659843
2009.202279
2346.544998
2612.536080
2334.884754
1372.573054
427.386940
67.249566
10.787158
6.067346
5.761093
6.191632
5.856755
5.248107
5.048527
4.873185
4.680244
4.054951
3.776793
3.477906
3.265909
0.000000
0.000000
0.000000
0.000000
5.520315
6.054762
6.211942
5.763485
3.464079
1.626865
2.314809
44.470387
238.833525
1081.192548
1904.702096
2320.824881
2298.204961
2048.903873
1684.475085
1342.191220
1065.813844
843.487014
684.230008
569.058392
481.857469
409.603974
358.197405
329.921183
320.951969
321.314700
331.735746
351.199882
389.952045
452.099622
541.928127
663.523866
818.259977
1043.253220
1322.376332
1631.205851
1993.903912
2403.629070
2645.386148
2237.710010
1137.257310
247.366571
27.360622
7.011791
6.156964
6.208931
6.316974
5.970127
5.739203
5.176487
4.936951
4.250372
3.720483
3.650804
3.521183
0.000000
0.000000
0.000000
0.000000
5.739477
6.383096
6.897118
5.732591
2.650552
1.583116
17.382496
137.339992
698.708751
1806.269195
2334.675131
2401.170321
2155.288283
1774.231081
1388.829498
1064.365472
825.074384
637.107763
498.998720
400.777968
327.965839
268.332886
230.374527
212.425116
203.236431
204.047571
211.723340
228.176498
260.615826
306.547003
377.310695
471.003678
603.862052
787.173732
1032.893066
1318.360937
1664.805108
2093.109554
2521.412182
2598.653722
1919.192429
675.869097
88.810048
11.083916
5.398990
5.915091
6.727722
6.480532
6.110581
5.622132
5.307705
4.670298
4.105728
3.890681
3.795381
0.000000
0.000000
0.000000
0.000000
6.056247
6.740888
7.087447
3.097454
1.338239
2.616805
48.633635
306.491077
1431.191152
2186.992536
2452.044308
2266.137039
1901.456631
1500.223594
1141.514740
850.750275
638.114981
475.905016
356.938538
270.720772
209.820158
169.639415
143.162862
127.086090
120.507974
120.053036
123.945462
138.759761
163.721234
200.936859
255.473106
331.932533
442.377983
588.115284
798.827433
1071.450788
1397.160646
1799.110815
2283.929482
2639.907393
2440.512099
1311.137119
271.558463
27.799711
6.728609
6.307867
6.578891
6.632057
5.869580
5.643344
5.558340
5.196649
4.782894
3.989499
3.760398
0.000000
0.000000
0.000000
0.000000
5.934798
6.659792
6.823485
1.330534
1.490227
9.368643
106.446927
610.523539
1962.239684
2443.184545
2412.364069
2061.315964
1655.958228
1269.677490
937.943080
683.112900
493.309563
352.031008
251.752125
179.698301
132.040322
101.479708
83.320297
71.638738
66.392739
63.926884
66.021749
77.053605
95.927411
124.116423
165.821887
225.149718
317.284934
444.942137
617.911514
851.761709
1158.731704
1543.646872
2029.005716
2495.426167
2668.976466
1917.486636
603.596527
74.425751
10.341024
6.322787
6.464289
6.826676
6.341737
5.935632
5.344223
5.367537
4.756320
4.014161
4.001549
0.000000
0.000000
0.000000
0.000000
6.269319
6.794276
6.954037
0.629547
0.786797
18.161112
184.989621
1086.150240
2196.211637
2530.460946
2302.393006
1880.121067
1457.758992
1081.055342
772.420689
543.710996
377.172142
256.186067
175.546050
118.593939
82.073585
59.072815
45.121071
37.642913
33.376117
31.043626
32.706214
39.168916
52.084888
72.435376
103.227873
150.039354
222.761306
330.979875
481.588748
684.355407
956.234317
1328.918060
1782.447044
2289.428948
2700.416459
2356.512162
1036.102730
172.625917
18.376209
6.481965
6.359282
7.082520
6.790489
4.645629
4.079245
5.198763
4.952068
4.299657
4.158521
0.000000
0.000000
0.000000
0.000000
6.368622
6.579672
6.713641
1.179014
0.432020
35.304814
268.260255
1608.735157
2367.881057
2528.315052
2174.965804
1712.304716
1289.285172
922.513241
640.894893
435.250312
288.655650
187.896783
120.244388
76.397665
49.002740
32.343872
22.586288
17.587940
14.332472
13.339728
14.989067
19.079709
27.422885
41.300146
63.993374
100.077697
157.053875
240.350329
370.305723
558.100755
806.841912
1151.478591
1587.502780
2111.824762
2610.467623
2550.160443
1444.988677
328.427179
35.084579
7.780054
6.450012
7.061008
6.965946
3.696076
2.896981
4.925230
5.455228
4.778551
4.215767
0.000000
0.000000
0.000000
0.000000
6.660539
6.731378
6.934794
2.017712
2.050359
51.131225
365.680472
1847.646768
2510.073415
2504.014131
2055.984278
1589.869174
1167.460651
811.396948
549.458468
360.928400
228.397954
141.754008
85.104644
50.379312
28.876574
17.079466
10.220658
6.576968
4.872383
4.930988
6.143631
8.840584
14.472199
24.934139
41.778531
69.798213
114.061045
179.394562
289.596789
453.761147
685.679506
994.082911
1398.169049
1937.303612
2514.022012
2654.875919
1724.171955
508.140228
61.872722
9.494354
6.411751
6.933726
6.839899
4.760165
4.080149
5.054952
5.722384
5.028541
4.050484
0.000000
0.000000
0.000000
0.000000
6.755519
6.899680
7.229451
3.236558
6.549216
61.076892
500.860330
1919.283203
2605.566790
2435.106931
1940.207352
1483.671508
1078.618622
735.525761
479.536308
302.682586
185.741691
110.488028
63.330407
33.678784
17.177991
8.654910
4.013341
1.713928
1.150962
1.453752
2.123607
3.585781
7.345326
15.107515
28.820724
50.639633
84.837436
141.426190
235.754366
380.389888
600.975904
893.176286
1269.994831
1787.152020
2376.776774
2653.515050
1893.368895
639.975380
94.121321
11.926988
5.770665
7.059354
6.732393
6.152646
5.580298
5.520543
5.673719
4.718753
3.917186
0.000000
0.000000
0.000000
0.000000
6.599093
6.627971
7.303854
4.737435
9.554424
57.336277
706.448464
1931.703728
2624.400903
2355.970953
1867.189035
1410.414600
1012.695351
682.468922
432.436271
264.822477
157.833488
88.768648
47.982357
23.936379
10.956459
4.548283
1.409308
0.253237
0.104204
0.257152
0.600422
1.503752
3.847139
8.880071
18.680324
37.302735
67.614077
117.812673
203.535453
338.341783
543.889908
820.935766
1180.685747
1693.303460
2270.896466
2596.699989
1864.052752
614.991283
104.515312
14.855845
5.453475
7.122612
7.104478
6.728327
6.384581
6.061130
5.511800
4.874687
4.103705
0.000000
0.000000
-0.000000
-0.000000
6.902725
7.006886
7.465699
6.127473
11.017667
48.100830
804.620097
1932.845740
2622.936599
2326.943559
1810.254141
1352.908234
964.856269
643.337538
403.019833
247.870213
143.437088
78.196204
39.915201
19.315624
8.219221
3.075430
0.731683
0.068913
0.009742
0.009563
0.057396
0.575823
1.983988
6.072674
13.662050
30.408726
59.127195
105.242697
184.983503
310.975493
505.936796
773.057826
1128.218375
1629.302662
2195.382347
2407.253516
1529.730362
484.934330
110.790965
17.731389
5.445712
6.479704
6.908219
6.788097
6.520755
6.078252
5.485724
5.527423
4.302675
0.000000
0.000000
-0.000000
-0.000000
6.846190
7.589692
7.972127
7.689993
10.492408
62.841611
812.192893
1919.080098
2634.762401
2302.946609
1776.302387
1328.481070
943.814441
626.256087
397.133823
243.281529
137.264638
73.726709
37.552332
17.679009
7.623301
2.861925
0.785782
0.169132
0.007119
-0.133896
-0.261069
0.048164
1.384574
4.835641
12.136025
27.470184
54.759730
99.898152
177.038344
299.962331
495.398780
770.027672
1141.797130
1617.513576
2158.857269
2045.382304
1039.246752
455.599757
119.267912
19.079699
5.403631
6.118783
6.780873
6.784742
6.404133
6.015860
5.523456
4.821947
4.200345
0.000000
0.000000
-0.000000
-0.000000
6.633321
7.344541
7.919711
8.440804
6.907999
62.305477
714.452797
1843.030764
2674.266416
2341.605128
1815.578358
1342.881737
947.518926
638.385778
408.105474
249.060968
143.011055
76.516320
39.829001
19.961263
8.997805
3.754968
1.349286
0.390515
-0.025907
-0.290932
-0.421990
-0.071716
1.295646
4.986794
12.491770
27.679187
54.283080
102.186608
182.781959
306.620256
499.412885
780.032128
1160.297554
1635.299961
2165.174397
1823.195140
719.928658
442.269321
147.219901
20.600043
5.417068
5.810268
6.576654
6.437044
6.268537
6.041581
5.549575
4.790909
4.252552
3.836547
0.000000
-0.000000
-0.000000
6.637528
7.115949
7.466363
7.914943
5.124626
51.950354
562.660116
1688.382727
2731.324598
2394.690110
1874.929613
1392.642541
984.090378
668.251581
435.670989
271.229049
157.319137
87.554259
46.429645
25.290263
12.669972
6.065630
2.775214
1.130157
0.377083
0.218661
0.379951
0.804231
2.337783
6.818574
15.308843
32.759004
61.813745
114.152949
198.531015
328.285511
526.304074
817.035968
1205.838656
1684.960508
2030.948524
1652.185469
651.114223
468.613500
175.576575
20.202237
5.469755
5.633704
6.400291
6.047136
6.029055
5.911786
5.264843
4.699926
4.134576
3.690085
0.000000
-0.000000
-0.000000
6.404675
6.754532
7.169345
7.329883
5.532951
37.674279
392.549339
1452.692981
2656.849092
2457.225070
1971.678588
1480.095220
1059.576240
723.998131
482.996625
309.879083
187.420405
106.918231
60.017892
35.443914
19.500894
10.962826
5.985009
3.362243
2.038871
1.890286
2.125471
3.291955
6.036859
11.100656
21.811635
43.951522
78.122050
135.365030
228.129221
371.564332
588.636138
889.780813
1290.192756
1779.931223
1982.198026
1476.889606
810.321034
447.127939
143.731769
17.455749
5.854616
5.754206
6.207819
6.189073
6.152900
5.545060
5.185011
4.680117
4.180807
3.378882
0.000000
-0.000000
-0.000000
5.964256
6.455097
6.849263
7.012522
7.232456
24.752408
234.118403
1125.604071
2412.211994
2501.757128
2123.352446
1623.003692
1166.735756
813.250391
551.109064
363.503024
231.896079
138.964395
84.116738
52.947627
32.499921
19.674809
12.002146
8.364258
6.362647
6.103369
6.825795
9.244473
13.371415
20.326849
34.814476
61.954708
102.781439
169.370502
274.655829
439.982376
677.312751
999.335837
1412.614661
1891.394541
1928.171658
1397.208252
1006.136975
514.038443
105.886139
14.260205
5.882579
5.885107
6.027707
6.006867
5.899430
5.368818
5.037997
4.733976
4.040769
3.312456
0.000000
-0.000000
-0.000000
5.659093
6.313641
6.710767
6.870888
6.895282
15.342853
112.358090
698.424401
2098.256097
2545.402445
2309.086663
1803.130489
1327.378198
940.072414
646.925824
438.805821
291.444686
184.722225
122.038995
81.281455
54.516228
35.569719
24.909666
19.211397
16.581552
15.350262
16.512131
20.781235
27.371929
37.919693
57.352159
91.020712
142.110627
223.027629
345.444992
527.800300
794.584092
1135.580725
1555.960326
2030.483434
1916.094727
1549.314364
1042.619824
429.509388
70.425042
11.721372
5.118530
5.562577
5.972692
6.108576
5.427353
5.051956
4.811963
4.548655
4.105510
3.569799
0.000000
-0.000000
-0.000000
5.548649
6.014524
6.233894
6.434561
6.302227
9.691507
43.508012
311.267617
1678.137598
2541.447069
2521.263563
2020.401466
1525.880543
1101.319536
781.221756
543.238795
371.107272
252.164725
174.327155
122.394777
86.159775
62.209526
47.497136
39.302980
35.304178
33.446602
35.475218
40.687073
50.877509
67.477366
93.667432
135.856079
204.828049
309.881603
456.732570
666.288506
947.926821
1315.010178
1757.213618
2141.797806
1941.518034
1573.126300
924.202983
275.544022
42.692343
9.632512
5.315953
5.684580
5.999445
5.827616
5.189360
4.660238
4.255938
4.201071
3.874340
3.489037
0.000000
-0.000000
-0.000000
5.347801
5.678845
5.960019
6.092089
6.018065
7.190435
14.913432
109.616491
1093.617196
2278.954144
2669.335762
2277.834712
1770.651330
1314.587172
958.908435
688.403259
485.224382
345.856226
251.101319
182.572766
135.523074
105.664091
84.661745
72.412839
65.692221
63.152427
67.333229
75.435861
91.431203
116.320720
151.690367
205.332272
291.427841
416.179802
591.479368
827.824058
1136.134896
1532.539124
1954.026908
2220.422974
2007.771164
1409.009718
675.732230
150.356872
24.863801
7.200431
5.497323
5.478238
5.428988
5.417829
5.033849
4.675648
4.287964
4.007938
3.650416
3.366012
0.000000
-0.000000
-0.000000
5.042940
5.192750
5.623072
5.914290
5.774772
5.698880
6.806332
42.864287
528.673569
1656.061001
2674.264483
2528.257186
2057.401737
1591.244690
1190.805262
880.750767
651.374215
484.264625
360.548906
271.583413
209.615652
171.172124
141.925247
124.601042
115.956091
112.142876
118.815401
131.479356
154.403001
191.092999
240.744681
307.701700
412.658430
560.005509
773.881685
1041.733421
1371.844977
1783.677085
2131.470405
2250.507896
1811.332360
1075.727090
379.577185
69.934729
13.682615
5.724457
5.458923
5.354290
4.994600
4.886219
4.748417
4.391636
4.225315
3.835065
3.259010
3.183652
0.000000
-0.000000
-0.000000
4.652970
4.678386
5.274719
5.627659
5.616140
5.371915
5.427525
17.473195
173.626390
850.823126
2311.196370
2639.832152
2385.554164
1946.409579
1498.838441
1136.788746
865.219264
668.457425
520.219419
407.615657
322.011134
265.762257
231.196300
209.333265
193.672445
190.453291
199.154829
217.512030
250.091375
298.429275
362.240071
451.470120
584.625388
763.315518
1010.643203
1308.736055
1670.400379
2028.525004
2236.377105
2050.767432
1399.138117
708.930794
179.040322
29.123496
8.361391
5.356534
5.255734
5.132819
4.668529
4.664502
4.523733
4.174338
4.093074
3.757759
3.319603
3.153891
0.000000
-0.000000
-0.000000
4.107537
4.529663
4.874343
5.210597
5.370457
5.351421
5.095928
8.564841
42.229184
279.051669
1407.254737
2387.397820
2606.894812
2314.021806
1877.714655
1480.181390
1159.705560
914.507667
726.431540
584.860473
483.342179
411.525906
367.138060
337.765845
316.206331
315.502515
322.612996
351.796063
392.656201
448.249844
531.733224
650.647258
813.244035
1036.166875
1311.132097
1651.622760
1999.000782
2230.885094
2153.852866
1571.771169
947.445195
354.092859
67.252029
14.028902
5.711814
4.999722
5.178926
5.142217
4.619343
4.363999
4.110537
3.757496
3.761031
3.816234
3.332691
3.202914
0.000000
-0.000000
-0.000000
3.637480
4.199617
4.611824
4.855278
5.002945
5.174810
4.990261
5.529468
10.777469
50.850266
443.479505
1601.433487
2489.540288
2612.672852
2310.397144
1901.554103
1541.782175
1249.424581
1005.301326
821.777296
702.094332
618.873702
560.885099
520.839502
506.057294
499.567212
508.846220
534.719277
587.902091
658.965718
768.445847
926.203964
1131.661528
1386.435590
1691.599813
2014.464229
2252.512439
2222.506273
1736.124885
1100.879873
540.204921
129.855746
25.566300
8.533469
5.175380
4.928216
5.000270
4.942122
4.879763
4.306436
3.886218
3.726634
3.671088
3.351513
2.939473
2.734250
0.000000
-0.000000
-0.000000
3.233767
3.785116
4.228179
4.538157
4.800245
4.726955
4.698906
4.678220
5.139435
9.113484
75.582615
573.840711
1602.533819
2539.846779
2613.009655
2357.134916
2028.360995
1706.579682
1422.226306
1190.773868
1028.774260
914.305656
837.411083
781.647099
754.564723
745.700964
761.859111
790.867242
857.845043
954.509432
1101.093658
1308.942370
1550.940335
1825.362573
2106.964904
2295.504618
2234.567163
1800.613302
1204.404269
637.909370
213.342284
45.795204
12.089707
5.682511
4.695954
4.934679
4.817955
4.782554
4.675229
4.153371
3.662027
3.432670
3.404886
3.067318
2.851170
2.699402
0.000000
-0.000000
2.822324
3.043364
3.359115
3.799791
4.258590
4.534914
4.433338
4.422058
4.341316
4.283728
4.659789
12.242421
100.201558
547.279215
1681.462163
2455.116287
2637.006610
2505.420969
2227.055219
1946.260632
1691.206369
1495.089373
1339.174094
1241.289896
1157.578645
1116.015367
1100.110726
1128.637803
1177.469068
1250.398937
1369.485963
1546.505914
1782.065498
2027.346008
2230.654130
2330.504144
2203.573205
1796.434040
1259.698825
739.558948
291.492647
67.093210
16.340372
6.528334
4.646703
4.448432
4.360649
4.437001
4.536382
4.319710
4.114655
3.789747
3.323926
3.436994
3.395817
3.035959
2.612932
0.000000
-0.000000
2.805171
2.928409
3.170756
3.580824
3.948112
4.130165
4.334430
4.305702
4.139560
4.186792
3.834789
4.166154
12.151467
72.994172
366.095402
1481.164967
2336.556964
2683.097564
2672.425170
2483.275534
2270.459068
2052.176949
1891.297766
1769.236212
1681.899738
1623.323152
1593.924540
1608.435748
1666.743172
1755.417791
1897.105481
2088.343438
2272.383779
2377.226780
2332.436656
2097.272481
1674.735954
1210.728103
757.476085
333.651889
92.589027
19.515672
6.255659
4.547958
4.521284
4.451086
4.174828
3.979549
3.915794
3.718085
3.656590
3.619185
3.419862
3.210943
3.051187
2.769305
2.222100
0.000000
-0.000000
2.722448
2.903847
3.055788
3.352603
3.579025
3.610462
3.766823
3.820427
3.704619
3.683621
3.654764
3.530566
3.833064
6.054541
27.534197
256.715179
953.910687
1856.190928
2461.454983
2665.076374
2662.761130
2557.594747
2431.732804
2332.425735
2255.744087
2209.573743
2188.762196
2181.380624
2223.557906
2290.155741
2357.138458
2395.312754
2341.560144
2173.138904
1842.140917
1428.795443
1005.554218
633.888279
297.971041
103.339268
29.239547
9.445668
4.822091
4.379410
4.329846
4.368649
4.040086
3.845558
3.818387
3.448831
3.276562
3.158861
3.144504
2.938011
2.509348
2.284390
2.100865
0.000000
-0.000000
2.482039
2.522748
2.648112
3.052270
3.341417
3.420377
3.559839
3.597128
3.563487
3.471662
3.570792
3.450101
2.980286
2.711411
2.894698
18.278872
142.859830
545.273918
1270.655840
1886.838933
2288.812837
2496.567290
2570.899860
2576.355787
2551.904543
2546.376733
2536.327764
2487.541335
2440.763850
2351.361335
2210.282092
1995.614537
1706.102967
1395.950214
1075.774935
776.512702
489.835043
251.467717
95.635068
31.380425
9.677234
4.865258
4.241656
4.489962
4.228594
4.158493
3.804647
3.578392
3.413196
3.056119
2.936220
2.975539
2.921878
2.680221
2.249994
2.176489
2.170580
0.000000
-0.000000
2.216628
2.232368
2.265594
2.747592
3.120608
3.186373
3.338427
3.562522
3.592745
3.520931
3.416805
3.308290
2.918207
2.850170
2.422469
3.363682
10.702451
52.569513
220.320888
596.806925
995.650548
1368.821503
1661.046985
1858.302100
1939.593272
1998.165558
2007.855152
1952.721653
1793.452625
1611.766056
1371.364825
1149.612697
930.198762
708.872065
508.884149
329.550276
174.178911
67.602681
22.671007
8.614823
4.547693
4.103879
3.622884
3.909312
3.989746
3.760917
3.530929
3.378621
3.177776
3.101004
2.789115
2.957013
2.743100
2.404741
2.160352
1.958318
1.793712
0.000000
-0.000000
2.009922
2.021739
2.054446
2.458713
2.748726
2.848125
2.853677
3.043459
3.246076
3.324980
3.230130
3.033484
2.886850
2.779688
2.481438
2.578593
3.241732
4.643042
18.286820
65.631780
158.979234
305.719993
497.633727
629.647676
729.284731
797.020894
826.130907
835.819454
790.317261
722.215395
635.081594
546.981576
399.420780
265.350038
148.314347