# vtk DataFile Version 2.0
Structured Grid
ASCII

DATASET RECTILINEAR_GRID
DIMENSIONS 59 58 1
X_COORDINATES 59 double
-24.700983
-23.657511
-22.614038
-21.570565
-20.527093
-19.483620
-18.440148
-17.396675
-16.353202
-15.309730
-14.266257
-13.222785
-12.179312
-11.135839
-10.092367
-9.048894
-8.005422
-6.961949
-5.918476
-4.875004
-3.831531
-2.788059
-1.744586
-0.701113
0.342359
1.385832
2.429304
3.472777
4.516250
5.559722
6.603195
7.646667
8.690140
9.733612
10.777085
11.820558
12.864030
13.907503
14.950975
15.994448
17.037921
18.081393
19.124866
20.168338
21.211811
22.255284
23.298756
24.342229
25.385701
26.429174
27.472647
28.516119
29.559592
30.603064
31.646537
32.690010
33.733482
34.776955
35.820427

Y_COORDINATES 58 double
-30.422956
-29.382565
-28.342174
-27.301783
-26.261391
-25.221000
-24.180609
-23.140218
-22.099827
-21.059436
-20.019045
-18.978654
-17.938263
-16.897871
-15.857480
-14.817089
-13.776698
-12.736307
-11.695916
-10.655525
-9.615134
-8.574742
-7.534351
-6.493960
-5.453569
-4.413178
-3.372787
-2.332396
-1.292005
-0.251614
0.788778
1.829169
2.869560
3.909951
4.950342
5.990733
7.031124
8.071515
9.111906
10.152298
11.192689
12.233080
13.273471
14.313862
15.354253
16.394644
17.435035
18.475426
19.515818
20.556209
21.596600
22.636991
23.677382
24.717773
25.758164
26.798555
27.838946
28.879338

Z_COORDINATES 1 double
0 

POINT_DATA 3422
SCALARS var1 double
LOOKUP_TABLE default
0.000000
0.000000
0.000000
0.000000
0.000000
0.000000
0.000000
0.000000
0.000000
0.000000
0.000000
0.000000
0.000000
0.000000
0.000000
0.000000
0.000000
0.000000
0.000000
0.000000
0.000000
0.000000
0.000000
0.000000
0.000000
0.000000
0.000000
0.000000
0.000000
0.000000
0.000000
0.000000
0.000000
0.000000
0.000000
0.000000
0.000000
0.000000
0.000000
0.000000
0.000000
0.000000
0.000000
0.000000
0.000000
0.000000
0.000000
0.000000
0.000000
0.000000
0.000000
0.000000
0.000000
0.000000
0.000000
0.000000
0.000000
0.000000
0.000000
0.000000
0.000000
0.000000
1.111446
1.265259
1.333166
1.242366
1.237218
1.473129
1.707763
1.765912
1.945386
1.656693
1.487816
0.000000
0.000000
0.000000
0.000000
0.000000
0.000000
0.000000
0.000000
0.000000
0.000000
0.000000
0.000000
0.000000
0.000000
0.000000
0.000000
0.000000
0.000000
0.000000
0.000000
0.000000
0.000000
0.000000
0.000000
0.000000
0.000000
0.000000
0.000000
0.000000
0.000000
0.000000
0.000000
0.000000
0.000000
0.000000
0.000000
0.000000
0.000000
0.000000
0.000000
0.000000
0.000000
0.000000
0.000000
0.000000
0.000000
0.000000
0.000000
1.431812
1.620553
1.529905
1.541225
1.580849
1.718530
1.651544
1.792887
2.283265
1.921418
1.952593
2.045685
2.264926
2.753331
3.165476
3.051895
3.421514
2.824865
2.913763
3.072066
3.064648
2.765560
3.087945
2.833615
3.571883
3.429695
4.275743
4.070671
3.625596
2.706039
3.949256
4.380539
4.280759
3.820093
3.234638
0.000000
0.000000
0.000000
0.000000
0.000000
0.000000
0.000000
0.000000
0.000000
0.000000
0.000000
0.000000
0.000000
0.000000
0.000000
0.000000
0.000000
0.000000
0.000000
0.000000
0.000000
0.000000
0.000000
0.000000
1.473486
1.472848
1.382951
1.854424
2.038551
1.882082
1.649551
1.907822
2.465465
2.468687
3.049308
2.543174
2.781355
2.965248
3.102910
3.808371
3.874215
3.898290
3.915117
3.689277
3.696148
3.807017
4.092001
4.176655
3.833329
4.575681
4.725463
5.210713
5.340839
4.120553
4.282582
5.070446
4.958760
4.221346
3.917435
3.318559
3.312923
3.206370
3.016821
2.816145
2.353408
2.603082
2.190841
2.040934
1.600450
1.587049
1.572478
1.469153
1.178092
1.312722
1.053314
1.180918
1.055401
1.250730
0.000000
0.000000
0.000000
0.000000
0.000000
1.835061
1.831336
1.708619
1.725940
2.121569
2.469072
2.353288
2.582225
2.612631
3.041273
3.722242
2.824287
3.213792
3.834233
4.134109
4.014071
4.703122
5.113095
5.038943
4.755884
5.282945
5.760286
5.743438
5.565560
5.329914
6.168602
6.222393
6.580669
7.449540
5.913985
5.289954
4.978796
5.338047
4.560184
4.219264
4.660697
4.160655
3.675268
3.240993
3.425327
3.209832
2.844126
2.667040
2.037228
1.593467
1.541845
1.748064
1.944786
1.493259
1.612107
1.280461
1.256823
1.345884
1.429104
0.000000
0.000000
0.000000
0.000000
0.000000
1.907288
2.289286
2.335718
2.209404
2.338625
2.829480
3.113454
3.355991
3.124691
3.430816
4.046467
3.514507
4.187395
4.778012
5.224526
5.265800
5.699152
6.239876
6.121203
6.259613
6.631038
7.420691
7.065746
7.290999
7.214954
7.429300
8.262497
9.016662
9.864811
9.700877
7.021531
6.393664
6.408015
6.020263
6.079359
6.300435
5.175648
4.740830
4.739273
4.763309
4.273977
3.445579
3.537554
2.801803
1.876068
1.650458
1.563383
1.981805
1.652224
1.464161
1.320940
1.245291
1.632544
1.576295
0.000000
0.000000
0.000000
0.000000
0.000000
2.170442
2.590002
2.669900
3.196878
3.219431
3.657636
4.047461
4.079313
4.296957
4.115078
4.451467
4.607607
4.927346
5.343515
5.897655
6.757872
7.236971
7.480480
7.559994
8.460671
9.124250
9.622961
8.928753
10.064925
9.929776
9.872224
10.916386
11.497273
11.875077
11.936189
10.626669
9.934644
9.504109
8.614971
7.778781
7.082958
6.623599
6.493009
5.773836
5.068021
4.595502
4.932474
4.326518
3.505677
3.254902
2.869676
2.578217
2.212762
2.215650
2.074027
1.847135
1.532745
1.960732
1.852294
0.000000
0.000000
0.000000
0.000000
0.000000
2.146483
3.029407
3.224378
3.628605
3.601350
3.849096
3.969728
4.087278
5.065879
4.961577
5.366858
5.584231
6.392227
6.128889
6.812761
7.368156
7.891410
9.037050
10.879558
11.969542
12.078819
12.395926
14.497447
15.427695
14.731480
14.782992
15.623376
15.589082
15.269540
14.510252
14.487452
13.475515
13.626011
12.532970
9.627935
7.240936
6.537595
6.279221
6.951325
5.904430
5.320477
5.501512
4.803192
4.065638
4.028187
3.596332
3.345374
2.898246
2.598448
2.709777
2.045053
1.497770
1.750095
1.813318
0.000000
0.000000
0.000000
0.000000
0.000000
2.609511
3.084299
3.542303
3.795099
4.356281
3.995899
4.473395
5.074567
5.390486
6.110324
5.745246
6.112011
7.144716
7.164748
8.639503
9.500844
10.049136
12.178473
14.346088
16.909747
18.434049
20.944085
24.531527
25.495756
23.367578
22.936226
22.697111
21.542876
18.801937
17.926587
18.741588
18.098954
18.225258
16.459012
12.065526
9.354109
0.546961
0.527381
5.836803
7.421420
7.121500
6.712788
5.717506
5.036215
4.927432
4.325469
4.321213
3.530622
2.612616
2.745788
2.424994
2.183188
1.883437
1.669413
0.000000
0.000000
0.000000
0.000000
0.000000
2.965889
3.152253
3.505517
3.984948
4.621259
4.756819
5.578110
6.371821
6.835792
6.830122
6.354337
7.298403
7.986140
8.099943
10.607742
12.140851
15.149110
19.459058
22.979070
29.557816
34.472417
36.838261
39.217018
40.879261
38.037947
35.938137
31.800013
27.203811
24.429324
23.561173
23.384386
23.108780
23.226830
18.895759
15.359976
13.557221
-0.414796
-1.078842
2.037092
1.772335
5.742081
8.154237
6.946161
6.296664
5.788466
5.129347
4.900722
3.940401
3.137675
2.967175
2.588428
2.419792
2.257350
1.915571
0.000000
0.000000
0.000000
0.000000
0.000000
3.280036
3.353543
3.804734
4.132899
4.743371
5.725983
6.760696
6.629064
6.942725
6.673931
6.943944
7.371672
7.960598
10.287875
13.730292
18.368783
24.748290
37.592701
56.707573
76.440563
95.749117
122.682575
116.400699
111.348038
103.487209
80.132167
70.782169
53.527476
42.242495
38.378676
30.858930
28.964163
29.637140
24.718063
20.217615
18.374581
1.397430
1.299914
0.214938
-1.747194
3.923429
9.495419
7.729343
7.346620
6.501494
5.747294
5.385160
4.745347
3.961828
3.518941
2.912394
2.806114
2.815479
2.671433
0.000000
0.000000
0.000000
0.000000
0.000000
4.151861
4.657538
4.840540
4.910662
5.607083
6.765777
7.244571
7.491351
6.761290
5.759559
7.230987
8.703175
11.991688
18.750606
28.842358
46.425922
81.744733
147.056957
234.596678
355.750502
457.646820
557.958469
583.575149
575.274116
498.077088
394.922778
322.660517
225.288401
147.918477
121.558976
71.133036
56.209891
47.043526
37.534764
30.173218
24.911963
21.805030
15.971879
3.974254
0.278158
6.698135
11.269789
9.360768
8.291980
7.476614
6.965652
6.244621
5.555955
4.634177
4.284596
3.603888
3.396286
3.455905
3.220561
0.000000
0.000000
0.000000
0.000000
0.000000
5.084576
5.986061
5.567659
5.634861
6.033977
7.522425
7.663539
7.047650
5.209612
5.974085
9.132006
12.661275
25.499578
51.759359
112.342982
257.190654
463.668425
792.731157
1066.548659
1316.625598
1570.602512
1730.978894
1965.812436
1977.593362
1940.684047
1756.634113
1549.163439
1178.437292
900.013322
622.918242
316.998152
191.147599
116.875016
66.971663
45.003927
34.789485
27.792239
19.195791
17.344646
14.254687
13.641305
12.811580
11.326822
8.888596
8.183901
8.018694
6.745445
6.012333
5.439835
5.054926
4.589725
4.065610
3.704969
3.188902
0.000000
0.000000
0.000000
0.000000
0.000000
5.411644
6.067376
6.225945
6.171169
6.580643
7.681256
6.026555
3.619210
5.524968
9.239499
17.521364
32.290003
90.044829
245.101580
576.927048
1044.978651
1493.814443
1906.222845
2218.159721
2483.097051
2669.137002
2825.114982
2935.076909
2979.859574
2979.918845
2939.982659
2943.762616
2800.603529
2588.948768
2219.835138
1560.280107
1036.302151
598.105007
282.601605
118.910102
63.309260
42.373734
23.004603
19.184508
18.205949
16.863142
15.564855
13.520738
11.151295
10.519312
9.670105
7.689297
7.051915
6.280297
5.520464
5.198688
4.904105
4.025885
3.399019
0.000000
0.000000
0.000000
0.000000
0.000000
5.457370
6.079682
6.908751
6.611628
7.230611
7.576707
1.208428
0.542114
8.728112
19.462394
41.824307
133.783090
444.812063
1013.919304
1742.309100
2270.418821
2571.259213
2876.054752
2995.578824
3040.770619
3071.858540
3105.126665
3118.091921
3126.522270
3115.377130
3164.117314
3257.728438
3413.173327
3505.422508
3486.179342
3161.294322
2802.984503
2255.685041
1390.972448
569.065273
254.023631
104.884500
45.247650
27.848807
24.543307
22.105096
20.143176
15.909257
14.019207
12.735693
11.480479
9.493817
8.136194
7.440045
6.396235
6.036698
5.115755
4.063260
3.946141
0.000000
0.000000
0.000000
0.000000
0.000000
5.954098
6.888087
7.993762
8.089645
7.161018
6.625541
1.201978
0.141753
17.921766
43.022062
125.251085
546.385251
1364.133802
2182.015641
2747.753922
3092.523775
3216.880152
3174.108352
2986.311455
2805.026586
2662.411383
2529.611042
2469.175296
2392.958245
2390.298064
2468.586823
2622.010040
2889.205769
3168.223297
3439.084950
3640.279751
3798.104388
3653.698720
3139.033037
2075.455334
1009.581676
365.246893
117.789204
54.470907
33.534538
27.993773
24.256295
19.621421
15.913410
13.609483
12.645120
10.372732
8.340908
7.955374
7.420033
6.538416
5.304852
4.608129
4.308644
0.000000
0.000000
0.000000
0.000000
0.000000
6.663454
7.636751
8.754833
8.923120
22.922473
80.442208
5.131387
5.964097
44.152688
134.251989
497.763845
1403.713767
2292.442060
3026.591436
3351.755564
3383.347854
3096.503125
2726.080258
2415.712962
2145.055464
1969.228171
1837.560986
1781.051377
1715.223363
1718.917275
1763.870557
1883.084718
2071.097025
2317.625680
2644.919869
3025.166749
3481.211581
3964.575966
4176.414057
3763.876717
2625.366867
1449.005565
467.132985
149.018634
59.604230
38.469454
30.879567
24.773221
18.983953
15.365995
13.282260
10.361320
8.886448
8.199563
6.811021
6.288075
5.379207
5.127323
5.209390
0.000000
0.000000
0.000000
0.000000
6.870985
6.967662
8.603207
9.646827
9.933882
27.118504
70.743669
6.555856
33.425396
122.020210
377.058501
1368.909315
2390.509160
3098.501326
3395.278826
3167.663118
2854.061578
2413.880059
2019.329623
1748.460939
1531.929550
1400.306855
1268.565017
1197.733173
1177.794299
1167.167033
1202.465725
1295.972837
1439.253647
1633.199278
1874.746393
2211.490462
2633.134964
3162.322325
3745.285820
4245.475496
4135.690613
3137.770707
1599.037007
497.675239
149.661706
60.525629
37.830319
27.982834
22.308619
18.176169
14.510664
11.450956
10.116618
9.281033
7.315858
6.549864
6.099202
5.762939
5.359082
0.000000
0.000000
0.000000
0.000000
7.655648
7.657118
8.761684
9.810540
2.364035
2.325995
13.611585
15.927082
80.949287
311.434042
1238.316330
2445.057216
3174.373443
3359.845925
3120.494822
2647.899232
2195.830472
1762.129891
1431.286604
1210.640844
1058.246167
937.486850
843.745463
776.425431
754.716693
755.622203
792.215698
859.411628
954.143642
1111.698318
1301.645221
1556.921972
1910.477937
2359.019637
2913.181863
3537.727776
4168.794843
4423.752709
3368.776432
1537.852487
460.627766
134.610987
54.110685
32.983952
25.890668
21.523070
15.847339
12.356993
10.884331
10.052504
8.479921
7.411441
7.007337
6.397011
5.703069
0.000000
0.000000
0.000000
0.000000
7.785793
8.198706
9.328549
10.276788
-1.347885
6.875319
0.108930
61.447074
259.630759
880.827181
2601.414820
3343.178468
3417.566435
3145.230840
2592.121573
2036.716716
1611.703237
1259.268838
990.577922
823.016465
698.194109
600.652510
531.957723
486.720636
461.919367
467.036107
485.300896
517.003328
591.512861
706.195144
851.210103
1064.084693
1327.449087
1680.333529
2165.208085
2757.577500
3487.917868
4232.299280
4263.203224
3140.368055
1343.579492
353.794640
97.825713
44.094653
29.734500
23.705081
16.738337
12.608122
11.178955
10.683620
10.044514
8.154342
7.570322
6.931525
6.146684
0.000000
0.000000
0.000000
0.000000
8.068029
9.205774
10.075786
12.608131
-1.672172
11.028614
2.555769
146.770863
665.204837
2514.231749
3439.966721
3585.334478
3188.293540
2623.337059
2002.545428
1524.350669
1153.095752
859.716429
660.521944
538.241651
438.763284
359.544653
314.688980
282.069480
260.884208
261.114444
271.036140
289.807914
339.539654
419.141543
519.372901
669.980905
897.569491
1169.740813
1577.929948
2119.011601
2738.539935
3580.995485
3985.081919
4389.141968
2846.254466
929.469652
199.643948
63.892186
33.070112
25.083211
18.653357
14.930807
12.453228
11.518056
11.328983
8.685715
7.648757
7.572770
7.114669
0.000000
0.000000
0.000000
0.000000
7.849097
9.872769
11.018063
12.315070
0.014897
5.892238
34.296387
343.492983
1717.873323
3311.034655
3745.158836
3416.511379
2754.655414
2105.266684
1544.154805
1116.817558
808.226774
579.687567
435.846401
330.780158
255.076253
195.514724
165.385037
145.203945
135.468719
132.284639
132.639294
147.738235
173.263640
223.719535
298.932832
394.893547
560.539466
781.858101
1089.978087
1555.598165
2150.885465
2898.935843
3710.320096
4201.001730
3824.372871
1896.654391
419.729000
98.056719
37.978874
26.210702
21.778586
16.431324
12.918587
11.674533
11.718165
9.379559
8.656378
8.682821
7.899407
0.000000
0.000000
0.000000
0.000000
8.014440
9.702485
11.932786
7.136764
-0.032479
0.371151
130.430243
752.134036
3037.249422
3734.311926
3698.643273
3024.702302
2289.733522
1668.672478
1178.542064
811.416582
557.538376
380.132300
264.775046
187.551275
133.898079
97.311909
77.112975
65.154709
58.144518
55.591075
56.118172
63.960972
77.710679
105.820275
158.208534
221.662868
329.414005
495.112640
745.460030
1111.989515
1661.069377
2321.735439
3204.517492
4065.681988
4214.100572
3038.066340
917.256285
175.520328
51.000078
29.717798
22.527003
17.438855
12.740496
11.336992
11.914797
10.784883
9.231515
9.109853
8.422334
0.000000
0.000000
0.000000
0.000000
8.404779
10.169639
11.979621
4.588629
-1.317992
-2.091461
255.699266
1316.346817
3400.015085
3807.237289
3449.556559
2623.589821
1855.185801
1290.759973
873.265101
577.220775
369.919127
232.235282
144.865960
94.917912
63.362933
41.581174
29.520768
21.761505
17.253438
16.966727
17.943463
22.526973
29.901247
43.520744
71.207691
113.382430
182.890966
303.567192
506.581605
794.146941
1265.080105
1875.662356
2642.392301
3638.234466
4347.795594
3963.348161
1746.022561
330.709221
81.726260
33.810652
25.573586
20.411945
15.776559
12.298686
11.578361
11.389048
9.920852
8.968092
7.939596
0.000000
0.000000
0.000000
0.000000
9.121068
10.748516
12.167966
3.221500
3.689868
32.461415
461.536375
2095.368807
3531.731477
3739.895286
3035.023121
2196.466354
1521.267277
1029.505854
648.231383
396.175059
234.190632
133.386232
73.348891
39.841562
23.088051
13.264797
7.078766
2.876424
-0.053617
-0.691883
-0.862604
-0.111015
1.879100
10.685099
23.781821
48.640612
96.700815
180.429954
334.923224
569.608970
974.887301
1515.508283
2201.241890
3176.707533
4171.543072
4321.324938
2512.886895
591.272468
131.648883
44.639967
27.938159
24.081546
17.069387
8.910107
8.309479
10.666567
10.363901
9.316992
8.406667
0.000000
0.000000
0.000000
0.000000
9.456116
10.601447
11.605170
4.268100
10.746683
80.818499
650.479692
3008.508876
3795.598263
3600.420100
2703.576071
1897.937299
1276.898721
826.466480
494.565876
281.204400
152.825495
78.483499
34.907006
14.813334
6.052007
1.319074
-1.016926
-3.290142
-5.636234
-7.118319
-8.359655
-10.002806
-10.841501
-7.479754
-0.025617
15.288771
47.139797
103.722924
215.299456
407.479583
752.755906
1240.520251
1886.909880
2767.360852
3752.097469
4318.941350
3012.163128
897.077334
209.833526
60.133827
29.822029
25.384969
19.495413
8.756228
6.596442
9.335554
10.131671
9.335256
9.086751
0.000000
0.000000
0.000000
0.000000
8.784734
10.084397
10.453781
3.373040
7.970005
139.677559
872.233052
3302.968895
3998.660625
3510.849290
2502.521994
1708.512066
1107.887287
672.336738
383.254147
203.869781
99.945573
42.398075
14.387397
3.564599
-0.166368
-2.027146
-2.765914
-4.401781
-6.635096
-8.889478
-10.555278
-12.981289
-15.459668
-15.801386
-13.602706
-6.308992
15.241182
59.066543
144.018471
295.706341
588.681808
1039.600967
1663.385341
2461.297575
3641.259431
4281.499987
3501.555618
1456.395398
228.080377
77.556337
34.567170
27.289464
20.913977
13.234244
10.050302
10.446144
10.580364
9.551824
8.875326
0.000000
0.000000
0.000000
0.000000
9.463256
9.714149
9.914088
4.255324
16.023960
179.235362
957.678907
3236.223715
3967.149223
3300.632193
2288.488797
1532.489261
965.996957
555.740230
302.810623
152.213887
66.498344
22.940447
4.905635
-0.409769
-1.417846
-1.499576
-2.030005
-3.845027
-6.211998
-8.460011
-10.232885
-13.219694
-17.545909
-21.193053
-23.013990
-17.202767
-2.776253
28.934290
99.248731
224.519509
474.168392
873.390480
1466.923766
2216.869345
3375.252272
4201.867518
3725.816192
1437.012749
281.008056
103.739419
38.609956
27.482327
21.286793
16.689370
13.947338
12.463793
11.129462
9.981371
8.782630
0.000000
0.000000
0.000000
0.000000
8.987746
9.884987
10.306749
7.355411
27.658823
189.117936
1492.026499
3259.052143
3918.872935
3069.837507
2114.741082
1406.907931
871.907163
490.261000
257.373911
121.502440
48.811832
13.555670
0.768303
-1.473819
-0.784250
-0.280279
-0.984699
-2.796566
-5.306506
-7.521418
-9.138652
-12.886889
-18.537878
-24.610098
-28.899316
-26.728651
-16.418627
4.185575
62.879327
171.550619
388.222927
754.286555
1332.030256
2099.988198
3239.149592
4045.363881
3640.801185
1244.207514
315.743315
118.413287
40.597331
29.032637
21.602370
17.109289
14.757737
12.730843
10.808418
9.373829
8.464993
0.000000
0.000000
0.000000
0.000000
8.754123
9.481735
9.670587
8.432324
28.172035
133.835093
1738.681719
3342.131929
3846.722094
2932.811402
2044.835288
1337.339429
810.020866
451.173765
231.188665
105.213014
39.672226
9.312480
-0.436990
-1.846106
-0.547166
0.222836
-0.388582
-2.193279
-4.591276
-7.333812
-9.712834
-13.529474
-18.888046
-24.814874
-30.130318
-34.649220
-30.336080
-9.671442
39.655781
138.095137
332.938485
667.783881
1227.559249
1959.916871
3008.453440
3659.131537
2751.347889
761.463877
318.935339
138.085066
43.242427
28.847065
20.179339
17.059688
15.638828
13.402336
10.863596
9.167047
7.915537
0.000000
0.000000
-0.000000
-0.000000
8.010603
8.848000
9.351779
10.425447
23.449361
132.987286
1766.442688
3493.132457
3919.120699
2935.788566
2039.795124
1331.344300
796.782730
439.888192
222.752436
101.409559
37.242450
8.897695
-1.276434
-2.467207
-0.921209
0.038716
-0.569207
-2.306483
-4.460812
-7.662680
-10.373242
-14.037470
-19.263093
-25.487006
-31.550085
-36.665570
-33.479943
-16.231872
25.815805
115.820089
297.663544
624.598075
1164.868932
1940.518411
2943.781321
2510.805215
1203.305902
614.409235
324.996589
149.012448
48.234012
28.239818
20.088108
17.740625
16.129875
13.319874
11.177268
9.251603
8.600702
0.000000
0.000000
-0.000000
-0.000000
7.331277
7.864086
8.860156
11.841853
19.587003
140.520052
1506.141965
3389.751740
3928.709407
2921.195308
2060.340216
1357.700684
818.670440
455.663993
234.270816
107.624992
39.672947
9.033185
-1.634160
-3.724183
-2.240273
-0.922307
-1.228728
-2.768448
-4.657846
-7.924817
-11.398067
-15.440133
-20.359694
-25.738479
-31.698192
-36.793266
-35.138740
-16.840390
25.532859
113.088553
293.783364
621.047795
1166.676333
1981.625032
2953.952238
1907.463156
720.498348
777.349895
424.987975
152.793290
50.104889
27.845931
21.148152
17.241483
15.727370
13.188731
10.826906
8.976250
8.772074
8.095077
0.000000
-0.000000
-0.000000
6.860714
7.475909
8.303158
10.518748
11.342144
106.222003
1141.931854
3029.470697
4028.081882
3027.139542
2166.401392
1424.606713
869.920062
494.677853
259.423932
122.094163
47.056272
12.446345
-1.505857
-5.275056
-4.436558
-2.908842
-2.739664
-3.602456
-5.325210
-8.338933
-12.202921
-17.057159
-23.196623
-27.710334
-33.165845
-37.149003
-36.375750
-16.947859
29.935050
129.749025
324.956052
682.878956
1241.443528
2089.766125
2555.015368
2019.702777
662.982673
778.533912
576.558093
138.498668
45.214932
26.596283
20.484949
17.027884
15.545117
13.098160
10.200884
8.896153
8.397377
7.904996
0.000000
-0.000000
-0.000000
6.478590
7.239667
8.324802
10.217808
11.505697
76.093231
706.797498
2366.861585
3856.858314
3220.030936
2328.075989
1546.731715
981.009755
584.734635
314.032527
154.209806
65.061708
22.014813
1.987944
-5.394182
-6.357034
-5.679656
-4.908939
-5.742170
-7.507969
-9.710135
-13.003959
-18.273720
-25.306267
-30.590752
-35.514406
-38.788933
-35.533403
-10.324531
44.687015
155.011977
368.255740
763.120941
1395.466623
2284.165837
2522.034071
1601.400357
713.463632
827.782036
535.657166
121.048930
39.908289
24.435622
19.181194
16.148630
14.251857
12.002860
9.995822
9.020831
8.009599
7.574859
0.000000
-0.000000
-0.000000
6.212737
7.118667
8.038883
9.129927
14.791105
58.247246
453.978921
1857.445156
3587.474998
3369.072614
2525.913693
1695.003118
1109.782178
700.365652
407.544579
215.115631
100.712918
42.650124
13.523571
-1.090835
-6.926249
-8.332799
-8.086639
-8.811941
-10.513205
-13.334121
-16.746372
-20.888882
-26.642986
-32.607528
-39.542986
-39.093215
-28.442291
2.555076
74.051299
211.059781
470.181372
920.069461
1600.635253
2534.991872
2329.087833
1639.370205
1054.324124
963.715925
425.227208
98.547942
38.168888
22.947912
16.276593
14.132624
11.909907
10.454999
9.650311
9.144735
8.035199
7.436320
0.000000
-0.000000
-0.000000
5.722560
6.784915
7.727580
9.036628
14.356453
43.282064
266.548012
1304.686158
3341.377914
3560.893308
2830.606208
1941.696640
1298.093835
864.690856
540.355269
313.562331
163.037687
80.146787
37.202392
11.856844
-2.465354
-8.715045
-10.909940
-11.778930
-13.325332
-16.345444
-20.373747
-24.560594
-27.906368
-31.209943
-34.754750
-29.816509
-7.770390
34.371776
130.358278
313.295084
626.055198
1138.706852
1904.864924
2837.255629
2222.528459
2281.993822
1912.870022
1106.370476
289.823627
70.120122
32.213760
21.594705
15.970934
13.620843
12.149956
10.180108
9.308449
8.423354
6.943328
6.655708
0.000000
-0.000000
-0.000000
5.136456
5.992965
6.973643
8.344282
11.282528
29.712854
133.402933
577.977933
2827.736219
3610.920081
3125.415427
2218.818509
1563.536762
1095.278441
726.786578
451.912236
253.497649
141.616149
77.463039
36.343375
11.908780
-1.804735
-9.791130
-11.680248
-13.519280
-16.142870
-20.721149
-24.553552
-25.169042
-24.165567
-20.318942
-6.591003
31.226188
96.630218
222.819002
455.364855
842.484420
1446.046749
2280.103475
2891.231124
2515.006673
2390.209482
1946.980301
801.710488
180.783225
50.353007
27.226594
20.080660
14.737834
13.074830
11.722622
9.757267
8.445725
7.699820
6.839647
6.321265
0.000000
-0.000000
-0.000000
5.116561
5.818610
6.579548
7.076210
9.089746
18.561846
57.184032
231.359337
1847.659872
3431.722432
3537.436832
2682.365789
1927.301550
1367.750765
941.158749
624.466403
387.364548
233.438892
141.535132
81.165069
42.960086
19.371257
5.760639
-0.027882
-3.771302
-6.269261
-10.203067
-11.694899
-7.393231
-0.079479
10.916113
38.596382
94.686213
195.831502
374.980610
691.766750
1175.898298
1869.001938
2716.564110
3136.790660
2994.549996
2484.856540
1645.902420
495.525015
110.491241
37.108536
22.686454
17.601400
13.290414
11.730440
10.658782
9.405117
8.228537
7.671881
6.936696
6.071503
0.000000
-0.000000
-0.000000
4.770826
5.464181
5.899552
6.329969
7.977580
13.094190
25.054653
104.969210
858.632978
2498.449880
3855.722718
3222.643515
2426.580259
1743.460144
1235.039479
868.815320
584.937380
384.753153
253.742516
165.081196
104.191630
65.165534
43.414268
32.320941
24.993783
19.841885
16.801043
19.081937
30.944250
51.085052
78.660493
129.879881
218.683757
368.232760
626.862706
1029.717462
1598.094167
2347.178263
3020.346386
3445.262539
3164.580215
2300.410101
1057.912594
265.459484
66.480421
29.137131
19.296609
14.714616
12.191696
10.440220
9.801310
8.743252
8.219434
7.459518
6.892891
5.922542
0.000000
-0.000000
-0.000000
4.406078
5.092436
5.431941
5.851648
6.816455
9.327229
15.695319
55.654935
280.502233
1326.692566
3738.017903
3658.563064
3058.376486
2285.236809
1684.100686
1221.171859
860.826831
602.522420
424.148643
301.076422
214.676082
154.961633
119.405939
98.706456
85.131942
80.294936
80.280945
87.882041
110.348360
145.871197
198.369203
284.363355
423.091179
646.571852
992.368065
1489.691983
2145.636222
2789.103256
3228.425310
3417.846141
2772.465075
1748.275549
601.733449
137.875526
41.607093
23.209583
16.465305
12.881294
11.465607
9.715287
8.848301
7.786154
7.618409
6.763213
6.261043
5.526535
0.000000
-0.000000
-0.000000
3.786685
4.480273
5.126594
5.554353
5.988114
6.382169
9.145270
25.232102
88.030087
524.218574
2338.411839
3617.335108
3658.595859
2948.003801
2271.565747
1696.751583
1265.600750
924.723449
670.656917
515.353303
387.906283
303.505346
254.824489
222.917218
200.824842
192.155790
192.805295
210.372712
250.500568
309.288061
391.922996
520.681525
722.143539
1050.424698
1487.092455
2086.057365
2791.604067
3256.582455
3345.661392
2941.875935
2126.717775
989.505444
256.901921
70.623252
29.763345
20.755469
15.921571
12.873936
10.869942
9.069388
7.787710
7.511540
7.035918
6.142454
5.656565
5.227403
0.000000
-0.000000
-0.000000
3.462436
4.275301
4.866738
5.013115
5.100513
4.603118
5.627139
11.073055
31.139778
127.148780
766.522500
2715.955651
3844.851512
3672.663902
2978.896566
2328.267855
1829.412696
1391.633203
1060.763003
829.590286
652.230583
549.270112
479.750751
428.588428
398.115042
383.583750
391.115726
418.045536
476.633929
564.448869
694.264165
895.608061
1189.885863
1615.923195
2156.745883
2830.854541
3308.284815
3423.902742
2932.032703
2267.271623
1292.704741
409.431760
106.844017
40.365415
21.993069
16.134298
13.802889
11.328744
9.668180
8.724357
7.361652
6.653235
6.392989
5.706782
4.902044
4.406607
0.000000
-0.000000
-0.000000
3.103427
3.639638
3.984517
4.167892
4.375130
3.903478
4.032681
5.450430
11.899030
38.861179
174.646073
1059.835623
2762.442001
4033.484288
3727.833581
3104.075968
2524.694569
2001.649709
1596.128537
1289.543133
1038.634156
899.956368
806.517708
737.738312
697.259950
686.755497
706.233752
757.886909
836.764628
955.091208
1156.858059
1451.649156
1844.547589
2329.524444
2847.447253
3219.541048
3424.969322
3020.794800
2340.810628
1562.791201
587.221116
158.083286
53.316151
25.972560
18.115664
13.992141
11.728152
10.519459
9.288373
8.245941
7.305092
6.100193
5.529822
5.177471
4.239217
3.496182
0.000000
-0.000000
2.444805
2.755172
2.817844
3.066130
3.392799
3.725740
3.483972
3.247314
3.683313
5.062285
12.020992
45.775677
215.253480
1050.580974
3080.190689
3939.455991
3872.431020
3381.870715
2810.310940
2344.178160
1972.504928
1664.043715
1479.983299
1316.710140
1212.659920
1160.337587
1154.959556
1188.657465
1261.665577
1396.065710
1563.262112
1822.285131
2198.852572
2624.257631
3073.313448
3360.446016
3323.535029
3024.046459
2288.856093
1672.537644
796.052050
227.211287
60.578115
27.609825
17.846619
14.237430
11.850662
10.404418
9.713844
8.576188
7.366624
6.582125
5.638870
4.834002
4.502502
3.827954
3.300786
0.000000
-0.000000
2.057021
2.223179
2.377893
2.491841
2.654408
3.102701
2.922759
2.601157
2.675224
2.825873
3.888223
13.323923
45.702772
186.146477
797.271596
2777.278438
3855.963840
3902.755309
3704.033145
3332.453966
2935.223806
2568.617247
2295.704019
2063.907924
1917.971979
1872.486237
1870.196074
1921.131906
2009.504182
2145.583135
2405.269937
2718.865643
3103.403496
3348.648998
3465.555076
3331.103379
2957.031539
2308.775604
1663.075154
900.504223
292.762026
72.042096
31.098075
19.364742
14.270130
12.233970
10.604602
9.466426
8.496705
7.544518
6.850119
6.015132
5.305266
4.536576
3.975305
3.297309
2.887685
0.000000
-0.000000
1.966876
2.120392
2.227889
2.164529
2.328587
2.689570
2.709565
2.558823
1.949611
1.855355
1.407393
3.655844
12.445822
36.620366
124.309138
477.288395
1691.606078
3234.225770
3933.125471
3921.347640
3765.164938
3561.757241
3309.792192
3050.199093
2884.150043
2851.047673
2816.214320
2910.493275
3056.059608
3175.905585
3343.624574
3596.592881
3560.380388
3430.214434
3082.976401
2580.318563
2067.748743
1401.068817
766.970175
309.022526
94.501891
37.875168
22.051219
14.530935
11.496963
10.294426
8.952516
8.066099
7.091393
6.338622
6.050120
5.833366
4.512074
3.817393
3.506075
3.073762
2.574448
0.000000
-0.000000
1.796435
1.902823
1.953367
2.098854
2.372067
2.401296
2.282071
1.999165
1.381914
1.104002
0.357043
-0.017030
2.590483
10.695236
28.887535
77.884841
287.491833
1006.929373
2317.630099
3285.332552
3737.104642
3875.229746
3908.907604
3805.317004
3686.516111
3719.861618
3667.567856
3655.147098
3755.408459
3746.484490
3643.416064
3348.417617
2969.497839
2587.669705
2141.250735
1637.327577
1089.259001
578.174065
247.562293
81.631624
33.965469
20.884998
15.620070
12.567846
10.571806
9.309378
8.065497
6.891078
6.231220
5.616569
5.242561
4.967413
4.105431
3.616944
3.392402
3.166343
2.813889
0.000000
-0.000000
1.229390
1.428280
1.730352
2.074631
2.112730
1.925512
1.811765
1.717734
1.201459
0.852850
0.164933
-0.667441
-0.618749
1.821862
9.409582
21.941815
45.701420
117.697617
401.947822
1110.559857
1958.501444
2673.037137
3075.790578
3394.430555
3425.516007
3478.097140
3407.303999
3283.433161
3156.227637
2898.946168
2542.161812
2204.841019
1860.225283