# vtk DataFile Version 2.0
Structured Grid
ASCII

DATASET RECTILINEAR_GRID
DIMENSIONS 59 58 1
X_COORDINATES 59 double
-23.584787
-22.541314
-21.497842
-20.454369
-19.410896
-18.367424
-17.323951
-16.280479
-15.237006
-14.193533
-13.150061
-12.106588
-11.063116
-10.019643
-8.976170
-7.932698
-6.889225
-5.845753
-4.802280
-3.758807
-2.715335
-1.671862
-0.628390
0.415083
1.458555
2.502028
3.545501
4.588973
5.632446
6.675918
7.719391
8.762864
9.806336
10.849809
11.893281
12.936754
13.980227
15.023699
16.067172
17.110644
18.154117
19.197590
20.241062
21.284535
22.328007
23.371480
24.414953
25.458425
26.501898
27.545370
28.588843
29.632316
30.675788
31.719261
32.762733
33.806206
34.849679
35.893151
36.936624

Y_COORDINATES 58 double
-29.982457
-28.942066
-27.901675
-26.861284
-25.820893
-24.780502
-23.740111
-22.699720
-21.659329
-20.618937
-19.578546
-18.538155
-17.497764
-16.457373
-15.416982
-14.376591
-13.336200
-12.295809
-11.255417
-10.215026
-9.174635
-8.134244
-7.093853
-6.053462
-5.013071
-3.972680
-2.932289
-1.891897
-0.851506
0.188885
1.229276
2.269667
3.310058
4.350449
5.390840
6.431231
7.471623
8.512014
9.552405
10.592796
11.633187
12.673578
13.713969
14.754360
15.794752
16.835143
17.875534
18.915925
19.956316
20.996707
22.037098
23.077489
24.117880
25.158272
26.198663
27.239054
28.279445
29.319836

Z_COORDINATES 1 double
0 

POINT_DATA 3422
SCALARS var1 double
LOOKUP_TABLE default
0.000000
0.000000
0.000000
0.000000
0.000000
0.000000
0.000000
0.000000
0.000000
0.000000
0.000000
0.000000
0.000000
0.000000
0.000000
0.000000
0.000000
0.000000
0.000000
0.000000
0.000000
0.000000
0.000000
0.000000
0.000000
0.000000
0.000000
0.000000
0.000000
0.000000
0.000000
0.000000
0.000000
0.000000
0.000000
0.000000
0.000000
0.000000
0.000000
0.000000
0.000000
0.000000
0.000000
0.000000
0.000000
0.000000
0.000000
0.000000
0.000000
0.000000
0.000000
0.000000
0.000000
0.000000
0.000000
0.000000
0.000000
0.000000
0.000000
0.000000
0.000000
0.000000
1.144057
1.304102
1.383229
1.297141
1.298935
1.550188
1.806008
1.873208
2.070084
1.793960
1.624021
0.000000
0.000000
0.000000
0.000000
0.000000
0.000000
0.000000
0.000000
0.000000
0.000000
0.000000
0.000000
0.000000
0.000000
0.000000
0.000000
0.000000
0.000000
0.000000
0.000000
0.000000
0.000000
0.000000
0.000000
0.000000
0.000000
0.000000
0.000000
0.000000
0.000000
0.000000
0.000000
0.000000
0.000000
0.000000
0.000000
0.000000
0.000000
0.000000
0.000000
0.000000
0.000000
0.000000
0.000000
0.000000
0.000000
0.000000
0.000000
1.462102
1.662158
1.578606
1.600028
1.652670
1.799644
1.741109
1.903340
2.423690
2.073041
2.121877
2.229715
2.486746
3.016898
3.478356
3.388038
3.803970
3.200874
3.335884
3.518513
3.502010
3.186315
3.533982
3.265886
4.082633
3.939642
4.863745
4.631470
4.121868
3.106335
4.439535
4.876835
4.755729
4.257026
3.615636
0.000000
0.000000
0.000000
0.000000
0.000000
0.000000
0.000000
0.000000
0.000000
0.000000
0.000000
0.000000
0.000000
0.000000
0.000000
0.000000
0.000000
0.000000
0.000000
0.000000
0.000000
0.000000
0.000000
0.000000
1.502451
1.509174
1.427128
1.916089
2.117991
1.969863
1.743754
2.035969
2.622676
2.642691
3.260065
2.769744
3.057850
3.277609
3.463944
4.238951
4.344633
4.426382
4.507088
4.267984
4.298213
4.416360
4.696708
4.800419
4.432438
5.252823
5.443274
5.943630
6.027036
4.705146
4.845242
5.672419
5.533539
4.723004
4.383913
3.699915
3.668967
3.547312
3.325697
3.092315
2.574200
2.838331
2.386089
2.212408
1.730120
1.712531
1.692621
1.574501
1.261003
1.401289
1.123039
1.257893
1.123698
1.327983
0.000000
0.000000
0.000000
0.000000
0.000000
1.866227
1.869111
1.754699
1.787221
2.203471
2.568263
2.469119
2.736052
2.787772
3.240581
3.974886
3.081239
3.546944
4.240065
4.616050
4.538289
5.307431
5.792008
5.789791
5.506180
6.125089
6.696887
6.658710
6.430900
6.190275
7.116664
7.196412
7.542547
8.408835
6.719377
5.986755
5.609806
5.991651
5.142959
4.755137
5.201823
4.623569
4.075775
3.588549
3.772944
3.514769
3.107203
2.904170
2.211843
1.725875
1.666042
1.882659
2.088962
1.600602
1.719675
1.367348
1.343058
1.435774
1.517707
0.000000
0.000000
0.000000
0.000000
0.000000
1.935447
2.329294
2.387269
2.273072
2.418528
2.937363
3.245121
3.527245
3.304243
3.664061
4.331723
3.823058
4.578091
5.276037
5.826106
5.970348
6.491725
7.086202
7.055249
7.236246
7.700333
8.606817
8.277098
8.504322
8.429360
8.697796
9.551588
10.324970
11.173019
10.950111
7.926167
7.196508
7.221649
6.792941
6.827430
7.026931
5.776629
5.268233
5.249514
5.247713
4.683617
3.771800
3.850581
3.040101
2.032882
1.786097
1.686913
2.131889
1.770700
1.565713
1.411727
1.330168
1.739174
1.675592
0.000000
0.000000
0.000000
0.000000
0.000000
2.194285
2.624269
2.712103
3.257467
3.305471
3.770602
4.192473
4.254755
4.496213
4.373482
4.761852
4.972027
5.382092
5.896034
6.582041
7.578574
8.208174
8.499133
8.676482
9.739431
10.535310
11.118169
10.421132
11.699501
11.587429
11.577371
12.640773
13.173008
13.517779
13.528534
12.032047
11.225709
10.745330
9.708629
8.741645
7.953803
7.400876
7.224016
6.414169
5.608861
5.048429
5.379022
4.709114
3.807542
3.523852
3.103626
2.784522
2.385764
2.374876
2.221277
1.976233
1.637047
2.086314
1.969894
0.000000
0.000000
0.000000
0.000000
0.000000
2.166183
3.050597
3.262992
3.685722
3.681464
3.957265
4.104480
4.262568
5.291765
5.252325
5.707634
6.001079
6.919608
6.760283
7.556358
8.259411
8.952182
10.210953
12.172459
13.496043
13.741723
14.136399
16.371565
17.519276
16.916249
16.951443
17.872078
17.808825
17.424620
16.520445
16.453656
15.262242
15.385505
14.084375
10.853589
8.193530
7.335752
7.031830
7.749837
6.559183
5.862210
6.019355
5.246228
4.428509
4.370245
3.893278
3.607965
3.120222
2.787927
2.901727
2.191217
1.603289
1.867396
1.928658
0.000000
0.000000
0.000000
0.000000
0.000000
2.616989
3.096258
3.572738
3.845189
4.427112
4.100147
4.618380
5.255031
5.632857
6.432451
6.142077
6.596257
7.737335
7.898842
9.515383
10.540700
11.268555
13.581229
15.787366
18.355578
20.198671
22.878459
26.824346
27.835772
25.997701
25.580121
25.357200
24.275847
21.427340
20.354926
21.262450
20.464614
20.564743
18.515324
13.616310
10.567099
0.672803
0.631280
6.537280
8.259102
7.872295
7.371078
6.261204
5.491589
5.352619
4.690972
4.664537
3.802644
2.809961
2.941150
2.596165
2.332512
2.007817
1.776319
0.000000
0.000000
0.000000
0.000000
0.000000
2.966444
3.164105
3.533536
4.026697
4.678808
4.851547
5.731203
6.570736
7.108628
7.191827
6.790457
7.840864
8.629069
8.905804
11.640643
13.270633
16.390855
20.824475
24.223959
30.552051
35.561946
38.024637
40.614968
42.207077
39.771009
38.089481
34.190796
29.772933
27.171033
26.477991
26.342528
25.930406
26.008101
21.389685
17.386839
15.297046
-0.829123
-1.492581
2.313914
2.029865
6.424653
8.987823
7.623923
6.871190
6.294819
5.563464
5.296253
4.249456
3.379231
3.182201
2.772234
2.585257
2.407919
2.040220
0.000000
0.000000
0.000000
0.000000
0.000000
3.270617
3.357683
3.823342
4.167851
4.799594
5.806874
6.879620
6.816602
7.221288
7.014708
7.359810
7.927020
8.624192
11.078402
14.648240
19.376728
25.599966
37.969386
55.724008
73.509608
90.480386
114.481640
107.961707
103.631695
97.671737
76.368959
69.250910
54.026235
43.890915
40.852371
33.828873
31.977977
32.867812
27.703104
22.767154
20.736892
1.877564
1.609546
0.248689
-2.151470
4.434882
10.495907
8.513515
8.036267
7.073723
6.237610
5.831022
5.125786
4.272697
3.783644
3.128211
3.002684
3.004867
2.846568
0.000000
0.000000
0.000000
0.000000
0.000000
4.116792
4.631756
4.829704
4.922266
5.636465
6.823069
7.350103
7.673018
7.020833
6.038347
7.609932
9.265617
12.668043
19.371540
29.210737
45.936256
78.590245
137.637001
213.260271
316.971780
404.180163
493.871643
521.914375
519.055234
451.581827
359.735061
297.977127
210.905895
140.994083
118.520685
72.264022
58.966433
50.470082
41.015292
33.497098
27.915252
24.549573
18.039621
4.562712
0.329927
7.532088
12.489589
10.358872
9.109544
8.164421
7.576219
6.772619
6.007025
5.001743
4.607062
3.869248
3.635423
3.689458
3.433954
0.000000
0.000000
0.000000
0.000000
0.000000
5.012994
5.912960
5.525236
5.616127
6.035623
7.551706
7.760125
7.209776
5.419664
6.228620
9.510233
13.152695
25.764022
50.850376
107.150193
237.723990
420.294495
708.915647
952.740503
1180.900343
1420.858141
1581.309441
1817.576136
1839.751349
1816.927321
1653.051411
1463.670964
1119.696841
859.678297
597.933314
307.324430
188.750235
118.174454
69.649654
48.415598
38.101280
30.959811
21.673922
19.499452
15.941756
15.162106
14.191166
12.526923
9.796249
8.956007
8.721601
7.316843
6.497919
5.866744
5.429365
4.916464
4.348400
3.955551
3.401244
0.000000
0.000000
0.000000
0.000000
0.000000
5.317124
5.968883
6.147026
6.121302
6.556652
7.688758
6.102776
3.725093
5.694671
9.476804
17.802415
32.144869
86.361148
228.347149
526.513209
942.180253
1344.476789
1723.289687
2021.069743
2283.530700
2473.561570
2636.216956
2755.734275
2810.783572
2824.011448
2801.578882
2818.995015
2694.273556
2500.871733
2152.326540
1519.305596
1014.916895
590.383398
280.865028
120.745011
66.553803
45.919967
25.729520
21.503183
20.295234
18.786703
17.254492
14.969192
12.289217
11.503548
10.511800
8.324958
7.609142
6.758233
5.926681
5.567332
5.244704
4.306067
3.631603
0.000000
0.000000
0.000000
0.000000
0.000000
5.347784
5.966620
6.797457
6.533096
7.166367
7.546377
1.250417
0.578689
8.853608
19.509388
40.968100
126.771750
410.840871
922.013556
1571.278110
2050.441654
2341.303908
2640.823783
2769.706677
2827.931979
2872.433533
2919.708355
2945.605510
2965.867028
2968.311143
3031.286940
3138.730051
3304.259105
3405.809882
3400.416373
3092.028876
2752.006670
2222.044388
1373.484466
565.073950
255.727177
108.179736
48.651830
30.583178
27.174421
24.449536
22.263646
17.608862
15.431759
13.922636
12.495644
10.282248
8.782143
8.009538
6.866340
6.456719
5.470945
4.347890
4.212566
0.000000
0.000000
0.000000
0.000000
0.000000
5.808529
6.728988
7.824387
7.947862
7.073714
6.573255
1.214732
0.152312
17.807834
41.941258
118.920569
504.792208
1242.366940
1977.397146
2493.186379
2824.618497
2957.054217
2931.952765
2770.083278
2614.015817
2491.547883
2377.337533
2331.922237
2270.585695
2279.849261
2367.671806
2529.544795
2802.338001
3087.587251
3365.898242
3573.897467
3740.387482
3609.632481
3108.597881
2060.500196
1006.634607
367.787760
121.458718
57.700110
36.514129
30.767515
26.737622
21.665528
17.518149
14.906104
13.763303
11.236347
9.013723
8.559298
7.954898
6.999050
5.679093
4.925478
4.594386
0.000000
0.000000
0.000000
0.000000
0.000000
6.469233
7.426825
8.532985
8.728455
22.595873
78.517294
5.088503
5.891978
42.742100
127.179206
461.838247
1281.963542
2079.811109
2752.932912
3065.337951
3107.729515
2851.135083
2514.899940
2235.188179
1991.997437
1836.368115
1721.826420
1678.213789
1625.226187
1638.394237
1691.737002
1817.272931
2009.810078
2260.185880
2592.042330
2977.902691
3440.532372
3932.577403
4154.599403
3750.198221
2617.056356
1447.571083
471.251124
152.766117
63.068925
41.701312
33.878067
27.228252
20.839093
16.817745
14.475293
11.268231
9.627847
8.834336
7.317459
6.741548
5.761849
5.477421
5.552872
0.000000
0.000000
0.000000
0.000000
6.636568
6.735037
8.326147
9.355778
9.664696
26.585813
68.782777
6.420880
32.191377
115.467371
351.187016
1256.147155
2178.161610
2818.510613
3098.518933
2896.646906
2613.328763
2211.844137
1852.881366
1609.418741
1415.120015
1299.792056
1183.951497
1124.837673
1113.855506
1111.185197
1152.138868
1249.960844
1396.582170
1594.047189
1839.912063
2181.026668
2607.893899
3144.403361
3736.426810
4246.610869
4139.487236
3144.185931
1604.335918
503.141586
154.073254
64.145465
40.956947
30.607017
24.448196
19.881106
15.856807
12.492679
10.979859
10.010268
7.877145
7.030935
6.525244
6.147784
5.708154
0.000000
0.000000
0.000000
0.000000
7.363447
7.370173
8.441265
9.466242
2.288613
2.294392
13.272910
15.316490
76.758336
290.466963
1139.989864
2232.981905
2890.941091
3059.880315
2843.257286
2411.319742
1998.648051
1603.524395
1303.945901
1106.270341
970.419095
864.452411
783.281156
726.026472
711.497658
717.758918
757.756776
828.045940
925.554726
1086.203777
1279.778161
1539.669418
1898.224069
2353.336420
2915.753425
3550.728609
4192.220888
4453.913791
3384.675673
1548.844326
467.683516
139.046025
57.500316
35.926261
28.325550
23.544183
17.309181
13.468169
11.807405
10.851711
9.131321
7.962100
7.500697
6.833516
6.084341
0.000000
0.000000
0.000000
0.000000
7.457009
7.855560
8.940541
9.857871
-1.286409
6.567007
0.125739
58.209933
242.847337
814.928348
2385.488961
3049.743208
3111.111148
2859.909967
2351.818288
1843.292614
1455.429623
1135.832711
894.047432
744.987852
634.716317
549.513970
490.595846
452.881478
433.968340
442.563245
463.538550
497.601323
573.752700
690.547836
838.686653
1055.494092
1323.868961
1682.897531
2175.989331
2779.171465
3523.178184
4281.556695
4301.926577
3164.565991
1356.876891
360.480989
102.026546
47.402247
32.474790
25.893705
18.240622
13.715618
12.124558
11.544512
10.805256
8.759101
8.108770
7.411561
6.562332
0.000000
0.000000
0.000000
0.000000
7.693401
8.777182
9.605301
12.004649
-1.573312
10.560466
2.406449
137.778187
617.950413
2315.245113
3147.332917
3267.477378
2896.822355
2375.433230
1805.529512
1368.664109
1031.554760
767.160104
589.802066
481.487083
394.375958
325.422639
287.725112
260.622234
243.874757
246.824332
258.806025
279.092355
329.985840
411.088589
513.669742
666.981244
898.897824
1176.662017
1592.708313
2144.480574
2777.267607
3637.440626
4041.893551
4446.999446
2877.018896
941.953512
205.393924
67.691726
35.953221
27.394993
20.365492
16.231327
13.495039
12.444124
12.191088
9.344826
8.196818
8.090354
7.591896
0.000000
0.000000
0.000000
0.000000
7.449844
9.364741
10.445285
11.664918
0.020246
5.617120
32.241286
320.428497
1589.458482
3043.071712
3422.328284
3107.666567
2493.944574
1895.748163
1381.969223
993.336995
715.143074
511.043097
384.133271
292.030053
226.538946
175.181878
150.015980
133.284573
125.897025
124.870329
126.800238
142.845810
169.180592
220.628419
297.398311
395.374882
564.617001
791.197616
1106.561688
1582.363033
2191.294829
2958.180617
3787.751978
4281.274476
3885.410076
1925.191752
428.965339
102.422395
40.786449
28.515078
23.715594
17.848480
13.966912
12.589435
12.621914
10.094378
9.283930
9.275049
8.425368
0.000000
0.000000
0.000000
0.000000
7.570460
9.155637
11.249619
6.722159
-0.030527
0.346949
121.958488
699.053054
2805.199824
3426.935285
3374.468363
2743.112105
2063.241683
1492.764597
1045.713193
714.028508
486.940076
330.010963
229.147046
162.631814
116.911800
85.930956
69.099339
59.524099
54.090735
52.603169
53.869237
62.235652
76.553593
105.242842
158.583221
223.394733
333.761887
504.185974
761.670422
1138.143666
1701.707545
2380.283780
3287.973548
4167.782681
4300.492878
3088.315534
933.083590
181.137744
54.122620
32.095397
24.460173
18.932472
13.802813
12.239486
12.821893
11.580506
9.896228
9.737502
8.980402
0.000000
0.000000
0.000000
0.000000
7.900028
9.544485
11.225935
4.297031
-1.235938
-1.957036
238.269505
1221.005724
3135.850957
3489.211072
3141.183620
2371.829095
1663.416974
1146.631638
767.670309
501.927539
318.056945
197.563328
122.339196
80.214104
54.132826
36.062499
26.139724
19.772706
16.115084
16.183544
17.395961
22.163256
29.858310
43.874092
72.310234
115.464841
186.915505
311.315063
520.773908
818.062956
1303.616520
1932.640506
2723.170560
3748.030689
4463.967548
4047.938257
1774.938435
340.030376
86.109641
36.309561
27.660383
22.129515
17.079914
13.286787
12.452561
12.219151
10.626004
9.575225
8.458925
0.000000
0.000000
0.000000
0.000000
8.527219
10.031295
11.331323
2.991270
3.436397
30.305219
429.304324
1941.707978
3255.219752
3424.666040
2759.020459
1980.248929
1358.374426
909.083893
564.908958
340.134683
197.771187
110.766532
60.069881
32.470045
19.101033
11.271793
6.233816
2.638202
-0.050778
-0.670253
-0.850963
-0.111568
1.913555
10.935065
24.498470
50.157678
99.908139
186.681157
346.809048
590.660755
1010.832475
1570.503537
2279.743719
3287.366253
4305.636053
4436.703561
2562.239133
606.893913
137.540116
47.579020
30.077683
26.031961
18.458190
9.601854
8.926009
11.438345
11.090175
9.942219
8.949186
0.000000
0.000000
0.000000
0.000000
8.792349
9.834819
10.735157
3.945647
9.976955
75.127287
604.518927
2787.102184
3498.206914
3295.424135
2454.989089
1707.742444
1136.690704
726.353386
427.936285
238.793603
126.919718
63.533597
27.515817
11.519757
4.802637
1.098161
-0.903820
-3.112760
-5.554611
-7.202513
-8.563079
-10.412791
-11.335696
-7.804537
-0.026763
15.978697
49.256659
108.302012
224.734586
425.607901
785.633583
1292.693359
1963.583230
2875.503602
3888.669224
4453.995707
3085.926217
920.635782
218.044980
63.613752
32.002065
27.410181
21.036677
9.388153
7.054779
9.994927
10.830312
9.949097
9.663584
0.000000
0.000000
0.000000
0.000000
8.117441
9.294816
9.596468
3.117509
7.413249
129.682092
810.110664
3059.196095
3686.157543
3213.480281
2271.782236
1535.966225
984.563988
589.176984
330.023866
171.691645
81.792774
33.420833
10.827115
2.580089
-0.123139
-1.656476
-2.580672
-4.487235
-7.051201
-9.562403
-11.335165
-14.017388
-16.665555
-16.883558
-14.473905
-6.687135
16.106278
62.276925
151.703379
311.189579
618.285588
1089.303091
1739.044693
2567.895039
3791.587536
4435.497205
3599.200030
1494.543593
236.657367
81.771672
37.003355
29.414694
22.530447
14.201413
10.759271
11.174978
11.296930
10.164839
9.423324
0.000000
0.000000
0.000000
0.000000
8.707340
8.901286
9.036113
3.936755
14.911870
166.183250
888.719877
2999.590002
3660.909096
3024.106483
2079.294051
1378.428417
858.578581
486.799300
260.341790
127.707497
53.956474
17.734924
3.532207
-0.268986
-0.902668
-1.187132
-2.195784
-4.556419
-7.369354
-9.749954
-11.534702
-14.760257
-19.445993
-23.167414
-24.893623
-18.515018
-2.972039
30.843833
105.448156
237.832219
500.770791
919.694187
1540.334865
2321.397822
3526.226671
4370.462922
3847.780670
1484.719927
292.501234
108.668572
41.173056
29.594203
22.903222
17.935111
14.949022
13.319196
11.867559
10.618083
9.324962
0.000000
0.000000
0.000000
0.000000
8.217467
8.984787
9.310266
6.710065
25.424164
175.311927
1386.004967
3025.548639
3622.549792
2819.121277
1925.949009
1268.367217
776.732199
430.511536
221.885617
102.229471
39.705057
10.484428
0.545245
-0.886644
-0.351149
-0.371194
-1.664279
-4.098300
-6.953561
-9.208689
-10.762781
-14.786441
-20.940066
-27.390393
-31.743441
-29.151153
-17.764736
4.502848
67.299357
182.813358
412.132644
797.891602
1404.352086
2207.134603
3394.347000
4220.634244
3777.852052
1291.803248
327.820787
123.956256
43.251236
31.169112
23.202224
18.351102
15.787472
13.585317
11.506447
9.956229
8.977118
0.000000
0.000000
-0.000000
-0.000000
7.957522
8.557558
8.640996
7.612091
25.726481
123.643951
1616.504536
3108.157325
3565.486522
2701.532736
1868.657521
1210.421237
725.030019
398.451223
200.796348
89.389210
32.720435
7.361546
-0.320611
-1.164237
-0.234004
-0.132385
-1.412205
-3.736173
-6.378249
-9.394486
-11.814688
-15.821072
-21.626875
-28.023220
-33.502847
-38.138740
-33.088660
-10.475720
42.692342
147.916089
354.985600
708.973927
1298.525918
2066.649498
3161.348344
3830.531711
2878.577370
799.202506
332.328217
143.818139
45.973256
30.918805
21.672083
18.270583
16.694637
14.279600
11.549353
9.718383
8.376979
0.000000
0.000000
-0.000000
-0.000000
7.227047
7.923597
8.277987
9.287377
21.185282
122.501199
1643.013268
3256.382949
3642.297042
2714.680114
1873.008897
1212.206077
718.222002
391.921238
195.809241
87.621400
31.509597
7.300179
-0.998669
-1.831255
-0.818797
-0.540439
-1.925668
-4.171687
-6.482336
-10.049008
-12.812885
-16.691226
-22.369718
-29.068191
-35.388060
-40.627154
-36.741527
-17.670761
27.919813
124.543328
318.446454
665.269940
1235.750660
2051.751820
3101.147141
2638.148986
1268.936413
646.489400
338.859150
155.192393
51.147218
30.218741
21.542434
18.964988
17.190538
14.172682
11.874781
9.813910
9.097550
0.000000
0.000000
-0.000000
-0.000000
6.553967
6.957906
7.749637
10.381381
17.732482
129.795476
1401.228604
3165.497418
3664.849232
2715.500575
1903.316079
1245.114689
744.486350
410.560578
209.005158
94.922560
34.541027
7.767691
-1.383027
-3.223971
-2.276018
-1.574811
-2.653405
-4.758773
-6.819878
-10.503920
-14.218468
-18.534151
-23.800091
-29.497392
-35.742003
-40.940500
-38.707302
-18.393128
27.696466
121.939074
315.125438
663.103979
1240.583990
2099.327167
3117.706286
2009.394642
762.787042
817.720440
441.539942
159.259586
53.022527
29.739803
22.622771
18.396758
16.732588
14.003717
11.484955
9.506807
9.269567
8.533102
0.000000
-0.000000
-0.000000
6.083579
6.551786
7.175527
8.994008
10.314472
98.230916
1062.419010
2835.841947
3771.917295
2829.947166
2013.711053
1316.423049
798.851796
451.257040
235.151618
109.969286
42.195033
11.171071
-1.360040
-4.927739
-4.535831
-3.545219
-4.118605
-5.518277
-7.520982
-10.906728
-15.169184
-20.441425
-27.097352
-31.766659
-37.454830
-41.433148
-40.157114
-18.548527
32.535149
140.169824
349.185636
730.362581
1322.156240
2217.013771
2699.559351
2131.478324
701.526359
815.833850
596.628494
144.540286
47.866384
28.344809
21.848609
18.132162
16.515598
13.886147
10.801416
9.402879
8.857704
8.322311
0.000000
-0.000000
-0.000000
5.711674
6.295188
7.108214
8.549888
10.342426
69.789813
655.885118
2218.971187
3625.991426
3026.346375
2178.177528
1440.282101
909.507616
539.858700
289.111735
141.784550
59.880543
20.378530
1.859311
-5.163781
-6.409236
-6.356507
-6.288227
-7.790887
-9.900827
-12.254148
-15.832013
-21.659861
-29.380137
-34.937701
-40.025905
-43.231517
-39.230703
-11.306409
48.598040
167.576863
396.033779
816.911360
1487.510451
2425.396848
2668.328794
1693.771205
754.320328
866.684897
555.231296
126.574832
42.293125
25.997518
20.395138
17.142041
15.110713
12.701755
10.553759
9.512751
8.436475
7.966709
0.000000
-0.000000
-0.000000
5.445199
6.138724
6.809507
7.557477
12.490772
52.324167
419.377276
1743.076493
3384.790584
3184.298521
2379.569759
1590.691062
1038.390541
654.182717
380.358088
201.095389
94.472258
40.267499
12.903610
-1.063252
-7.001563
-8.984595
-9.414317
-10.791244
-12.895653
-16.092145
-19.854483
-24.379223
-30.654989
-37.013805
-44.367125
-43.441998
-31.345721
2.795200
80.488211
228.110468
505.626134
985.021372
1706.661054
2692.692249
2465.814098
1733.595666
1111.652623
1007.562476
442.430979
103.365057
40.391090
24.355391
17.273523
14.966762
12.599593
11.042321
10.171201
9.625343
8.451604
7.809779
0.000000
-0.000000
-0.000000
4.967468
5.792763
6.514090
7.433354
11.965070
38.268660
244.640087
1223.697813
3157.666509
3382.272825
2684.839746
1836.259519
1225.678323
816.253227
510.253557
296.729045
155.128881
76.853996
36.051053
11.707757
-2.501641
-9.223631
-12.096698
-13.516303
-15.498516
-19.024657
-23.587577
-28.201203
-31.726742
-35.116239
-38.744460
-32.987102
-8.537511
37.519305
141.464335
338.226448
672.734799
1218.476481
2030.544916
3013.734688
2353.626982
2410.116609
2011.276308
1156.355543
302.521194
73.723051
34.052943
22.863825
16.897604
14.384984
12.816859
10.722715
9.788325
8.844967
7.285840
6.975934
0.000000
-0.000000
-0.000000
4.405480
5.044937
5.770130
6.761986
9.103738
25.537305
120.966739
539.599270
2678.846799
3449.548286
2986.761692
2116.240684
1489.331326
1043.524949
693.176197
432.337157
244.113008
137.397144
75.938768
36.253377
12.157999
-1.893737
-10.593743
-12.971982
-15.227470
-18.290720
-23.491265
-27.722105
-28.221082
-26.916814
-22.491842
-7.251927
34.165393
105.149040
241.243165
490.754664
904.122655
1545.871785
2428.906173
3069.882311
2662.471182
2522.736620
2046.526775
839.098727
189.224293
52.980083
28.733608
21.202137
15.542716
13.766231
12.328304
10.250184
8.864593
8.072244
7.162482
6.612872
0.000000
-0.000000
-0.000000
4.362013
4.863003
5.341564
5.577643
7.060932
15.303878
50.376164
213.056193
1746.465352
3287.411974
3398.918239
2576.821596
1850.840002
1314.240328
905.522520
602.775764
376.301848
228.473244
139.950109
81.474780
43.975322
20.243953
6.144849
-0.030307
-4.154653
-6.973503
-11.382197
-13.013612
-8.188484
-0.087661
11.993384
42.212924
103.107940
212.305435
404.820060
743.874927
1259.742190
1995.330663
2890.969609
3328.366814
3168.487632
2622.435768
1731.818999
519.861965
115.861010
38.994361
23.864520
18.510481
13.965769
12.312178
11.176802
9.853462
8.614808
8.025570
7.249793
6.339568
0.000000
-0.000000
-0.000000
4.030656
4.518726
4.734319
4.924784
6.058227
10.367346
21.154741
94.488031
808.165357
2394.741785
3720.537054
3118.121690
2347.789525
1688.539712
1198.009219
845.282655
572.337573
379.138893
252.193422
166.125411
106.461857
67.803303
45.942907
34.679956
27.123121
21.712004
18.470933
20.972498
33.916183
55.827172
85.757988
141.157470
236.905181
397.552930
674.481431
1104.338115
1708.467926
2501.764633
3210.447456
3652.828529
3348.547549
2429.636041
1114.625541
278.839189
69.675557
30.527240
20.216592
15.413166
12.767265
10.926427
10.247409
9.134829
8.582377
7.784847
7.187384
6.170763
0.000000
-0.000000
-0.000000
3.654407
4.177941
4.342988
4.537686
5.065789
7.027608
12.610436
48.820154
259.206885
1272.160227
3616.818084
3562.828622
2978.106075
2227.818750
1644.354502
1196.245089
847.638547
597.395885
423.893255
303.959338
219.344039
160.502179
125.368121
104.811321
91.255567
86.655015
87.038792
95.457697
119.823779
158.191348
214.768532
307.190492
456.055528
695.237564
1064.146272
1593.139921
2288.613062
2967.623084
3427.515712
3622.301623
2935.263668
1848.179949
634.526796
144.700596
43.481994
24.220060
17.180071
13.439549
11.961039
10.131888
9.223047
8.112029
7.933759
7.041207
6.516704
5.749151
0.000000
-0.000000
-0.000000
3.099438
3.656612
4.052297
4.247504
4.390153
4.590848
6.953801
21.148909
79.627498
500.167030
2264.252051
3540.430889
3584.045650
2891.546306
2232.441567
1672.770898
1252.910429
921.021326
673.205206
521.582838
396.590944
313.438751
265.889816
234.650367
213.068843
205.141538
206.817058
226.217034
269.681517
333.011136
421.646990
559.400331
774.783405
1124.896820
1589.057266
2224.312320
2970.495108
3458.997461
3548.523149
3118.235846
2253.848725
1047.054393
270.495598
73.821670
30.954425
21.563197
16.543102
13.379793
11.297829
9.426212
8.093023
7.804148
7.307958
6.377682
5.871311
5.424617
0.000000
-0.000000
-0.000000
2.819539
3.460287
3.815145
3.745003
3.609319
3.068769
3.856112
8.485056
26.849206
119.302450
741.262988
2670.405521
3791.593848
3622.601531
2944.290554
2307.731325
1819.375112
1391.233680
1067.433530
841.014640
666.579806
565.539195
497.991075
448.362254
419.360551
406.333173
416.035532
445.961023
509.456969
603.871881
742.514440
957.234652
1270.805901
1723.488652
2296.647648
3009.845888
3513.167599
3632.077528
3109.214787
2404.431088
1371.288229
433.187672
112.016126
41.903978
22.724588
16.678181
14.284449
11.729943
10.013210
9.038214
7.627074
6.892897
6.622949
5.911355
5.076334
4.562094
0.000000
-0.000000
-0.000000
2.517723
2.882075
3.059013
3.054117
3.011395
2.399863
2.368359
3.453636
9.026919
34.364720
167.368638
1040.869463
2738.389358
4000.770557
3701.273936
3089.701021
2521.467098
2008.252343
1610.406752
1308.994495
1061.494334
925.446662
834.560661
768.447427
730.745156
723.112491
746.251808
803.125266
888.823270
1015.948637
1230.832097
1544.239186
1961.443869
2475.255439
3023.479706
3415.935604
3631.171434
3201.146637
2481.808530
1659.245394
622.458596
166.690177
55.398142
26.721653
18.623257
14.401512
12.085558
10.851869
9.589092
8.515863
7.546432
6.302806
5.713608
5.349337
4.379877
3.611810
0.000000
-0.000000
2.022713
2.235414
2.170169
2.275386
2.407268
2.450078
2.028752
1.607339
1.900228
2.900375
9.274052
41.933869
210.091575
1046.133843
3072.835353
3937.104609
3874.931337
3391.802237
2828.831064
2370.171892
2004.246555
1699.985035
1519.459345
1358.820702
1258.365463
1211.020324
1210.676347
1250.276179
1330.771943
1475.553222
1654.673780
1930.204183
2329.634734
2780.631143
3256.245357
3560.488773
3520.651828
3202.623827
2425.880478
1774.208203
843.828543
239.598600
62.950248
28.250229
18.211014
14.569225
12.144448
10.679236
9.986939
8.825892
7.584455
6.779951
5.810155
4.981691
4.640684
3.945551
3.402469
0.000000
-0.000000
1.688527
1.793263
1.827727
1.803219
1.785589
1.988502
1.612549
1.117329
1.041999
0.885062
1.422057
10.188412
41.619657
183.263443
802.920199
2796.981563
3886.486108
3937.559691
3742.386146
3375.374963
2984.836134
2622.945847
2354.613727
2127.020511
1985.938405
1947.188868
1952.504016
2012.605253
2111.100737
2259.237560
2535.709371
2868.842568
3276.560860
3539.690383
3665.711256
3523.599588
3127.395197
2444.789345
1762.006839
955.950821
309.383766
74.612736
31.685325
19.626861
14.501558
12.479137
10.836067
9.690405
8.707464
7.737740
7.032792
6.179372
5.451093
4.662872
4.087965
3.391326
2.970378
0.000000
-0.000000
1.582949
1.671200
1.725809
1.550285
1.558113
1.753276
1.517661
1.222127
0.479916
0.162057
-0.794614
0.831052
9.319206
34.325506
123.436782
482.959136
1719.192697
3287.542752
3997.567868
3989.509403
3840.789167
3642.442788
3396.212965
3142.231281
2982.012556
2957.697579
2932.180847
3039.442665
3199.665677
3332.613773
3515.284632
3786.200897
3753.537688
3620.204657
3255.682398
2726.565952
2186.078767
1483.382513
811.465016
326.001272
98.064525
38.511024
22.218717
14.612740
11.629525
10.460817
9.117590
8.229766
7.243276
6.482331
6.194196
5.976315
4.625387
3.914059
3.597224
3.155175
2.643569
0.000000
-0.000000
1.437481
1.487502
1.485025
1.541947
1.664030
1.563773
1.233395
0.803867
0.016982
-0.417110
-1.561838
-2.545748
-0.428170
7.775185
27.241454
77.393326
292.338320
1032.091982
2375.508574
3367.348595
3834.981226
3982.750328
4025.592902
3928.246905
3817.367400
3861.455573
3818.506125
3815.832756
3927.903324
3924.789487
3825.683583
3521.332679
3129.267605
2729.128137
2259.407265
1729.261588
1150.123246
610.108598
259.608455
84.120409
34.236145
20.888598
15.617051
12.613977
10.661670
9.416425
8.177681
7.000445
6.345825
5.730216
5.354404
5.072610
4.196481
3.700706
3.473128
3.243438
2.883870
0.000000
-0.000000
0.965147
1.097746
1.297564
1.537162
1.484569
1.188384
0.963762
0.731374
0.019652
-0.559548
-1.574833
-2.868849
-3.357435
-1.281417
7.000587
20.732520
45.967276
121.191493
415.734651
1148.213294
2024.191918
2764.389093
3185.261744
3520.283622
3561.000143
3622.494598
3557.188882
3432.756675
3305.007038
3039.575275
2669.943380