# vtk DataFile Version 2.0
Structured Grid
ASCII

DATASET RECTILINEAR_GRID
DIMENSIONS 59 58 1
X_COORDINATES 59 double
-28.532732
-27.493340
-26.453949
-25.414557
-24.375165
-23.335774
-22.296382
-21.256991
-20.217599
-19.178208
-18.138816
-17.099424
-16.060033
-15.020641
-13.981250
-12.941858
-11.902466
-10.863075
-9.823683
-8.784292
-7.744900
-6.705509
-5.666117
-4.626725
-3.587334
-2.547942
-1.508551
-0.469159
0.570232
1.609624
2.649016
3.688407
4.727799
5.767190
6.806582
7.845973
8.885365
9.924757
10.964148
12.003540
13.042931
14.082323
15.121715
16.161106
17.200498
18.239889
19.279281
20.318672
21.358064
22.397456
23.436847
24.476239
25.515630
26.555022
27.594413
28.633805
29.673197
30.712588
31.751980

Y_COORDINATES 58 double
-30.358381
-29.319139
-28.279896
-27.240654
-26.201412
-25.162170
-24.122928
-23.083686
-22.044444
-21.005201
-19.965959
-18.926717
-17.887475
-16.848233
-15.808991
-14.769748
-13.730506
-12.691264
-11.652022
-10.612780
-9.573538
-8.534295
-7.495053
-6.455811
-5.416569
-4.377327
-3.338085
-2.298843
-1.259600
-0.220358
0.818884
1.858126
2.897368
3.936610
4.975853
6.015095
7.054337
8.093579
9.132821
10.172063
11.211305
12.250548
13.289790
14.329032
15.368274
16.407516
17.446758
18.486001
19.525243
20.564485
21.603727
22.642969
23.682211
24.721453
25.760696
26.799938
27.839180
28.878422

Z_COORDINATES 1 double
0 

POINT_DATA 3422
SCALARS alpha double
LOOKUP_TABLE default
-2.325204
-2.306711
-2.287577
-2.267784
-2.247312
-2.226144
-2.204264
-2.181658
-2.158313
-2.134218
-2.109368
-2.083757
-2.057385
-2.030257
-2.002381
-1.973770
-1.944444
-1.914428
-1.883753
-1.852457
-1.820584
-1.788184
-1.755314
-1.722036
-1.688417
-1.654529
-1.620447
-1.586249
-1.552015
-1.517825
-1.483759
-1.449893
-1.416304
-1.383063
-1.350236
-1.317885
-1.286066
-1.254829
-1.224217
-1.194266
-1.165009
-1.136469
-1.108664
-1.081609
-1.055312
-1.029775
-1.004998
-0.980977
-0.957704
-0.935169
-0.913360
-0.892260
-0.871855
-0.852126
-0.833055
-0.814624
-0.796811
-0.779598
-0.762964
-2.342602
-2.324068
-2.304867
-2.284977
-2.264377
-2.243046
-2.220966
-2.198118
-2.174488
-2.150062
-2.124829
-2.098784
-2.071923
-2.044248
-2.015765
-1.986487
-1.956432
-1.925626
-1.894100
-1.861895
-1.829056
-1.795637
-1.761700
-1.727311
-1.692546
-1.657482
-1.622204
-1.586797
-1.551350
-1.515951
-1.480690
-1.445652
-1.410920
-1.376572
-1.342682
-1.309317
-1.276537
-1.244396
-1.212939
-1.182205
-1.152224
-1.123023
-1.094618
-1.067022
-1.040240
-1.014274
-0.989120
-0.964772
-0.941218
-0.918446
-0.896439
-0.875181
-0.854650
-0.834828
-0.815693
-0.797223
-0.779396
-0.762190
-0.745583
-2.360645
-2.342093
-2.322846
-2.302881
-2.282173
-2.260699
-2.238435
-2.215362
-2.191459
-2.166712
-2.141104
-2.114628
-2.087275
-2.059046
-2.029944
-1.999981
-1.969173
-1.937545
-1.905129
-1.871967
-1.838108
-1.803609
-1.768537
-1.732964
-1.696973
-1.660651
-1.624089
-1.587385
-1.550635
-1.513940
-1.477398
-1.441103
-1.405149
-1.369622
-1.334603
-1.300163
-1.266369
-1.233278
-1.200937
-1.169387
-1.138661
-1.108780
-1.079763
-1.051619
-1.024352
-0.997960
-0.972437
-0.947772
-0.923951
-0.900957
-0.878772
-0.857372
-0.836738
-0.816844
-0.797666
-0.779180
-0.761361
-0.744184
-0.727625
-2.379357
-2.360811
-2.341544
-2.321528
-2.300736
-2.279140
-2.256714
-2.233434
-2.209277
-2.184221
-2.158249
-2.131347
-2.103505
-2.074718
-2.044987
-2.014321
-1.982735
-1.950252
-1.916906
-1.882738
-1.847801
-1.812156
-1.775874
-1.739037
-1.701733
-1.664060
-1.626118
-1.588017
-1.549866
-1.511776
-1.473856
-1.436214
-1.398951
-1.362164
-1.325941
-1.290362
-1.255497
-1.221407
-1.188143
-1.155747
-1.124249
-1.093673
-1.064034
-1.035339
-1.007588
-0.980777
-0.954895
-0.929927
-0.905856
-0.882660
-0.860317
-0.838800
-0.818084
-0.798143
-0.778947
-0.760470
-0.742683
-0.725560
-0.709074
-2.398762
-2.380250
-2.360990
-2.340951
-2.320102
-2.298411
-2.275848
-2.252385
-2.227993
-2.202647
-2.176325
-2.149007
-2.120680
-2.091334
-2.060966
-2.029582
-1.997194
-1.963824
-1.929505
-1.894280
-1.858203
-1.821340
-1.783769
-1.745578
-1.706864
-1.667736
-1.628308
-1.588700
-1.549036
-1.509441
-1.470037
-1.430944
-1.392277
-1.354141
-1.316635
-1.279846
-1.243849
-1.208710
-1.174481
-1.141206
-1.108914
-1.077628
-1.047360
-1.018113
-0.989885
-0.962665
-0.936438
-0.911186
-0.886886
-0.863511
-0.841035
-0.819427
-0.798658
-0.778696
-0.759510
-0.741069
-0.723343
-0.706301
-0.689913
-2.418885
-2.400438
-2.381216
-2.361185
-2.340309
-2.318553
-2.295883
-2.272264
-2.247663
-2.222050
-2.195396
-2.167678
-2.138875
-2.108973
-2.077964
-2.045848
-2.012636
-1.978347
-1.943012
-1.906675
-1.869393
-1.831235
-1.792286
-1.752641
-1.712411
-1.671713
-1.630678
-1.589440
-1.548138
-1.506913
-1.465905
-1.425247
-1.385069
-1.345487
-1.306611
-1.268534
-1.231341
-1.195099
-1.159865
-1.125679
-1.092573
-1.060565
-1.029664
-0.999869
-0.971172
-0.943558
-0.917007
-0.891494
-0.866990
-0.843464
-0.820884
-0.799216
-0.778424
-0.758473
-0.739328
-0.720954
-0.703318
-0.686386
-0.670126
-2.439747
-2.421399
-2.402251
-2.382262
-2.361395
-2.339610
-2.316866
-2.293124
-2.268345
-2.242493
-2.215533
-2.187434
-2.158170
-2.127719
-2.096068
-2.063213
-2.029157
-1.993918
-1.957524
-1.920018
-1.881460
-1.841924
-1.801499
-1.760293
-1.718425
-1.676029
-1.633251
-1.590243
-1.547162
-1.504169
-1.461421
-1.419071
-1.377262
-1.336126
-1.295784
-1.256339
-1.217880
-1.180480
-1.144197
-1.109072
-1.075132
-1.042394
-1.010860
-0.980526
-0.951375
-0.923388
-0.896537
-0.870791
-0.846115
-0.822472
-0.799823
-0.778128
-0.757349
-0.737444
-0.718374
-0.700102
-0.682590
-0.665800
-0.649699
-2.461373
-2.443161
-2.424124
-2.404218
-2.383400
-2.361625
-2.338847
-2.315021
-2.290101
-2.264045
-2.236809
-2.208356
-2.178651
-2.147666
-2.115379
-2.081779
-2.046864
-2.010645
-1.973148
-1.934416
-1.894508
-1.853503
-1.811497
-1.768608
-1.724969
-1.680730
-1.636055
-1.591118
-1.546099
-1.501179
-1.456539
-1.412352
-1.368779
-1.325970
-1.284057
-1.243154
-1.203357
-1.164743
-1.127369
-1.091276
-1.056488
-1.023016
-0.990857
-0.959997
-0.930415
-0.902082
-0.874963
-0.849019
-0.824208
-0.800485
-0.777807
-0.756127
-0.735399
-0.715580
-0.696625
-0.678491
-0.661138
-0.644526
-0.628618
-2.483783
-2.465749
-2.446866
-2.427087
-2.406362
-2.384643
-2.361876
-2.338011
-2.312995
-2.286776
-2.259303
-2.230531
-2.200414
-2.168916
-2.136006
-2.101662
-2.065876
-2.028652
-1.990011
-1.949993
-1.908657
-1.866085
-1.822382
-1.777675
-1.732114
-1.685868
-1.639122
-1.592076
-1.544935
-1.497908
-1.451203
-1.405015
-1.359530
-1.314915
-1.271317
-1.228861
-1.187650
-1.147763
-1.109258
-1.072174
-1.036528
-1.002324
-0.969552
-0.938190
-0.908206
-0.879561
-0.852213
-0.826113
-0.801211
-0.777455
-0.754793
-0.733172
-0.712542
-0.692852
-0.674054
-0.656100
-0.638947
-0.622550
-0.606870
-2.506996
-2.489185
-2.470503
-2.450899
-2.430319
-2.408706
-2.386004
-2.362152
-2.337091
-2.310759
-2.283098
-2.254050
-2.223560
-2.191579
-2.158066
-2.122989
-2.086328
-2.048078
-2.008254
-1.966890
-1.924044
-1.879801
-1.834274
-1.787600
-1.739948
-1.691507
-1.642491
-1.593128
-1.543656
-1.494316
-1.445346
-1.396973
-1.349408
-1.302839
-1.257431
-1.213319
-1.170614
-1.129398
-1.089725
-1.051630
-1.015123
-0.980199
-0.946837
-0.915003
-0.884656
-0.855745
-0.828215
-0.802010
-0.777069
-0.753332
-0.730738
-0.709228
-0.688745
-0.669233
-0.650638
-0.632910
-0.615998
-0.599858
-0.584445
-2.531030
-2.513491
-2.495062
-2.475687
-2.455307
-2.433860
-2.411281
-2.387503
-2.362457
-2.336073
-2.308281
-2.279011
-2.248197
-2.215776
-2.181693
-2.145902
-2.108371
-2.069083
-2.028041
-1.985273
-1.940833
-1.894808
-1.847315
-1.798508
-1.748572
-1.697725
-1.646209
-1.594290
-1.542244
-1.490352
-1.438890
-1.388121
-1.338286
-1.289599
-1.242243
-1.196367
-1.152087
-1.109484
-1.068612
-1.029495
-0.992134
-0.956511
-0.922592
-0.890330
-0.859669
-0.830546
-0.802893
-0.776643
-0.751723
-0.728065
-0.705599
-0.684258
-0.663978
-0.644698
-0.626358
-0.608902
-0.592279
-0.576439
-0.561334
-2.555901
-2.538687
-2.520567
-2.501480
-2.481361
-2.460144
-2.437755
-2.414120
-2.389160
-2.362794
-2.334941
-2.305517
-2.274441
-2.241636
-2.207029
-2.170559
-2.132175
-2.091845
-2.049558
-2.005331
-1.959212
-1.911286
-1.861676
-1.810549
-1.758112
-1.704613
-1.650333
-1.595579
-1.540677
-1.485955
-1.431738
-1.378330
-1.326011
-1.275023
-1.225570
-1.177814
-1.131877
-1.087837
-1.045740
-1.005600
-0.967404
-0.931118
-0.896689
-0.864055
-0.833144
-0.803876
-0.776170
-0.749945
-0.725117
-0.701607
-0.679335
-0.658228
-0.638213
-0.619222
-0.601193
-0.584064
-0.567779
-0.552284
-0.537532
-2.581621
-2.564788
-2.547037
-2.528302
-2.508514
-2.487599
-2.465476
-2.442062
-2.417268
-2.391003
-2.363171
-2.333674
-2.302415
-2.269298
-2.234230
-2.197131
-2.157927
-2.116567
-2.073020
-2.027287
-1.979406
-1.929455
-1.877562
-1.823906
-1.768721
-1.712287
-1.654933
-1.597019
-1.538928
-1.481052
-1.423772
-1.367446
-1.312398
-1.258904
-1.207193
-1.157438
-1.109763
-1.064242
-1.020908
-0.979759
-0.940763
-0.903864
-0.868990
-0.836058
-0.804974
-0.775644
-0.747968
-0.721850
-0.697195
-0.673910
-0.651908
-0.631106
-0.611424
-0.592788
-0.575129
-0.558382
-0.542487
-0.527389
-0.513035
-2.608197
-2.591806
-2.574489
-2.556177
-2.536794
-2.516259
-2.494486
-2.471382
-2.446848
-2.420779
-2.393065
-2.363594
-2.332248
-2.298910
-2.263466
-2.225808
-2.185839
-2.143479
-2.098674
-2.051399
-2.001676
-1.949573
-1.895218
-1.838802
-1.780584
-1.720888
-1.660096
-1.598635
-1.536964
-1.475549
-1.414845
-1.355277
-1.297221
-1.240995
-1.186852
-1.134975
-1.085488
-1.038454
-0.993887
-0.951763
-0.912022
-0.874584
-0.839350
-0.806211
-0.775053
-0.745757
-0.718209
-0.692294
-0.667903
-0.644932
-0.623284
-0.602865
-0.583589
-0.565377
-0.548153
-0.531849
-0.516401
-0.501750
-0.487842
-2.635634
-2.619750
-2.602937
-2.585121
-2.566224
-2.546157
-2.524826
-2.502131
-2.477960
-2.452197
-2.424717
-2.395387
-2.364072
-2.330629
-2.294918
-2.256800
-2.216146
-2.172843
-2.126802
-2.077968
-2.026335
-1.971954
-1.914945
-1.855510
-1.793935
-1.730593
-1.665932
-1.600464
-1.534742
-1.469329
-1.404775
-1.341586
-1.280204
-1.220994
-1.164233
-1.110115
-1.058753
-1.010192
-0.964420
-0.921379
-0.880977
-0.843099
-0.807614
-0.774385
-0.743268
-0.714125
-0.686817
-0.661214
-0.637192
-0.614634
-0.593431
-0.573481
-0.554693
-0.536978
-0.520259
-0.504461
-0.489519
-0.475370
-0.461958
-2.663931
-2.648621
-2.632385
-2.615146
-2.596821
-2.577316
-2.556530
-2.534353
-2.510663
-2.485331
-2.458216
-2.429166
-2.398022
-2.364616
-2.328776
-2.290329
-2.249105
-2.204949
-2.157729
-2.107346
-2.053754
-1.996974
-1.937111
-1.874371
-1.809066
-1.741626
-1.672581
-1.602551
-1.532207
-1.462244
-1.393329
-1.326074
-1.261003
-1.198530
-1.138959
-1.082486
-1.029207
-0.979134
-0.932217
-0.888353
-0.847406
-0.809220
-0.773624
-0.740446
-0.709513
-0.680658
-0.653722
-0.628556
-0.605019
-0.582982
-0.562325
-0.542939
-0.524724
-0.507586
-0.491444
-0.476219
-0.461844
-0.448253
-0.435389
-2.693082
-2.678415
-2.662834
-2.646257
-2.628596
-2.609755
-2.589624
-2.568085
-2.545007
-2.520247
-2.493647
-2.465037
-2.434233
-2.401037
-2.365243
-2.326635
-2.284999
-2.240126
-2.191826
-2.139942
-2.084374
-2.025093
-1.962174
-1.895813
-1.826351
-1.754277
-1.680226
-1.604952
-1.529290
-1.454099
-1.380209
-1.308363
-1.239183
-1.173145
-1.110573
-1.051652
-0.996444
-0.944915
-0.896956
-0.852406
-0.811074
-0.772749
-0.737217
-0.704263
-0.673680
-0.645274
-0.618860
-0.594270
-0.571348
-0.549952
-0.529951
-0.511229
-0.493678
-0.477201
-0.461712
-0.447130
-0.433385
-0.420410
-0.408147
-2.723074
-2.709124
-2.694276
-2.678449
-2.661551
-2.643480
-2.624123
-2.603353
-2.581030
-2.556999
-2.531085
-2.503100
-2.472832
-2.440054
-2.404521
-2.365970
-2.324132
-2.278734
-2.229513
-2.176236
-2.118722
-2.056871
-1.990701
-1.920383
-1.846271
-1.768926
-1.689106
-1.607747
-1.525895
-1.444641
-1.365023
-1.287962
-1.214198
-1.144271
-1.078516
-1.017089
-0.959992
-0.907119
-0.858280
-0.813240
-0.771734
-0.733488
-0.698234
-0.665711
-0.635675
-0.607900
-0.582178
-0.558319
-0.536154
-0.515528
-0.496301
-0.478349
-0.461559
-0.445831
-0.431074
-0.417207
-0.404156
-0.391857
-0.380248
-2.753888
-2.740728
-2.726697
-2.711711
-2.695676
-2.678489
-2.660031
-2.640171
-2.618759
-2.595629
-2.570592
-2.543440
-2.513938
-2.481824
-2.446813
-2.408592
-2.366827
-2.321168
-2.271264
-2.216780
-2.157424
-2.092991
-2.023406
-1.948779
-1.869460
-1.786077
-1.699547
-1.611039
-1.521897
-1.433524
-1.347252
-1.264229
-1.185344
-1.111195
-1.042109
-0.978176
-0.919305
-0.865280
-0.815804
-0.770539
-0.729134
-0.691239
-0.656523
-0.624676
-0.595413
-0.568476
-0.543634
-0.520679
-0.499425
-0.479707
-0.461378
-0.444308
-0.428380
-0.413491
-0.399548
-0.386468
-0.374179
-0.362613
-0.351712
-2.785498
-2.773202
-2.760070
-2.746018
-2.730952
-2.714766
-2.697340
-2.678537
-2.658202
-2.636160
-2.612211
-2.586127
-2.557649
-2.526487
-2.492310
-2.454754
-2.413413
-2.367849
-2.317601
-2.262206
-2.201225
-2.134294
-2.061191
-1.981912
-1.896759
-1.806419
-1.711995
-1.614975
-1.517117
-1.420275
-1.326188
-1.236311
-1.151706
-1.073019
-1.000521
-0.934182
-0.873761
-0.818886
-0.769115
-0.723982
-0.683027
-0.645817
-0.611949
-0.581061
-0.552829
-0.526963
-0.503209
-0.481341
-0.461163
-0.442500
-0.425200
-0.409128
-0.394165
-0.380207
-0.367159
-0.354941
-0.343478
-0.332706
-0.322566
-2.817868
-2.806511
-2.794361
-2.781337
-2.767345
-2.752280
-2.736021
-2.718430
-2.699349
-2.678595
-2.655959
-2.631200
-2.604039
-2.574155
-2.541181
-2.504694
-2.464216
-2.419210
-2.369090
-2.313229
-2.250995
-2.181805
-2.105203
-2.020981
-1.929316
-1.830911
-1.727086
-1.619763
-1.511303
-1.404222
-1.300849
-1.203051
-1.112089
-1.028607
-0.952740
-0.884249
-0.822662
-0.767387
-0.717791
-0.673251
-0.633184
-0.597058
-0.564402
-0.534799
-0.507885
-0.483344
-0.460901
-0.440318
-0.421389
-0.403934
-0.387797
-0.372842
-0.358949
-0.346013
-0.333944
-0.322660
-0.312089
-0.302168
-0.292841
-2.850957
-2.840610
-2.829524
-2.817621
-2.804809
-2.790985
-2.776031
-2.759809
-2.742162
-2.722905
-2.701823
-2.678667
-2.653142
-2.624906
-2.593554
-2.558614
-2.519536
-2.475679
-2.426315
-2.370629
-2.307741
-2.236765
-2.156897
-2.067580
-1.968716
-1.860925
-1.745752
-1.625714
-1.504079
-1.384380
-1.269829
-1.162854
-1.064905
-0.976520
-0.897547
-0.827395
-0.765247
-0.710213
-0.661420
-0.618058
-0.579409
-0.544841
-0.513812
-0.485855
-0.460575
-0.437633
-0.416739
-0.397647
-0.380146
-0.364054
-0.349216
-0.335495
-0.322776
-0.310956
-0.299945
-0.289667
-0.280051
-0.271038
-0.262574
-2.884713
-2.875447
-2.865504
-2.854810
-2.843281
-2.830817
-2.817304
-2.802610
-2.786580
-2.769033
-2.749755
-2.728493
-2.704947
-2.678759
-2.649500
-2.616658
-2.579616
-2.537639
-2.489850
-2.435224
-2.372587
-2.300652
-2.218114
-2.123842
-2.017200
-1.898490
-1.769415
-1.633311
-1.494861
-1.359251
-1.231064
-1.113479
-1.008045
-0.914953
-0.833500
-0.762528
-0.700725
-0.646813
-0.599632
-0.558170
-0.521567
-0.489099
-0.460160
-0.434247
-0.410938
-0.389881
-0.370781
-0.353390
-0.337498
-0.322925
-0.309520
-0.297151
-0.285707
-0.275090
-0.265216
-0.256012
-0.247412
-0.239360
-0.231807
-2.919079
-2.910957
-2.902232
-2.892834
-2.882685
-2.871694
-2.859755
-2.846742
-2.832510
-2.816885
-2.799661
-2.780592
-2.759381
-2.735667
-2.709012
-2.678880
-2.644609
-2.605383
-2.560195
-2.507808
-2.446723
-2.375164
-2.291140
-2.192627
-2.077986
-1.946703
-1.800351
-1.643341
-1.482696
-1.326449
-1.181416
-1.051724
-0.938699
-0.841677
-0.758956
-0.688501
-0.628334
-0.576709
-0.532152
-0.493448
-0.459613
-0.429845
-0.403499
-0.380046
-0.359057
-0.340180
-0.323122
-0.307641
-0.293534
-0.280632
-0.268790
-0.257885
-0.247813
-0.238484
-0.229820
-0.221753
-0.214225
-0.207185
-0.200586
-2.953988
-2.947070
-2.939630
-2.931606
-2.922929
-2.913517
-2.903274
-2.892089
-2.879827
-2.866329
-2.851405
-2.834823
-2.816303
-2.795499
-2.771981
-2.745214
-2.714523
-2.679048
-2.637692
-2.589042
-2.531288
-2.462126
-2.378708
-2.277712
-2.155762
-2.010483
-1.842420
-1.657196
-1.465907
-1.281941
-1.115941
-0.972971
-0.853191
-0.754057
-0.672165
-0.604229
-0.547453
-0.499585
-0.458857
-0.423891
-0.393616
-0.367192
-0.343959
-0.323394
-0.305077
-0.288668
-0.273892
-0.260522
-0.248371
-0.237283
-0.227126
-0.217789
-0.209179
-0.201215
-0.193828
-0.186958
-0.180553
-0.174568
-0.168963
-2.989365
-2.983704
-2.977609
-2.971029
-2.963905
-2.956167
-2.947734
-2.938507
-2.928373
-2.917192
-2.904796
-2.890982
-2.875496
-2.858025
-2.838174
-2.815441
-2.789179
-2.758542
-2.722413
-2.679296
-2.627163
-2.563255
-2.483819
-2.383886
-2.257331
-2.097933
-1.902678
-1.677568
-1.441256
-1.218425
-1.026586
-0.870605
-0.746925
-0.649240
-0.571511
-0.508894
-0.457746
-0.415387
-0.379851
-0.349683
-0.323797
-0.301370
-0.281771
-0.264509
-0.249199
-0.235532
-0.223263
-0.212191
-0.202150
-0.193006
-0.184644
-0.176969
-0.169901
-0.163371
-0.157320
-0.151698
-0.146462
-0.141572
-0.136996
-3.025131
-3.020770
-3.016071
-3.010995
-3.005493
-2.999511
-2.992982
-2.985830
-2.977961
-2.969263
-2.959599
-2.948801
-2.936660
-2.922913
-2.907226
-2.889165
-2.868164
-2.843464
-2.814034
-2.778440
-2.734647
-2.679697
-2.609203
-2.516596
-2.392169
-2.222752
-1.995247
-1.710429
-1.401603
-1.121490
-0.899986
-0.735582
-0.614778
-0.524690
-0.455954
-0.402253
-0.359370
-0.324453
-0.295539
-0.271238
-0.250553
-0.232745
-0.217263
-0.203686
-0.191686
-0.181007
-0.171444
-0.162832
-0.155037
-0.147950
-0.141477
-0.135544
-0.130086
-0.125049
-0.120385
-0.116055
-0.112024
-0.108263
-0.104745
-3.061198
-3.058172
-3.054911
-3.051384
-3.047560
-3.043398
-3.038852
-3.033866
-3.028374
-3.022294
-3.015529
-3.007954
-2.999418
-2.989725
-2.978628
-2.965798
-2.950802
-2.933050
-2.911719
-2.885634
-2.853056
-2.811321
-2.756167
-2.680459
-2.571697
-2.407544
-2.151533
-1.772117
-1.327652
-0.959944
-0.714743
-0.557348
-0.452579
-0.379305
-0.325710
-0.285019
-0.253171
-0.227613
-0.206675
-0.189223
-0.174460
-0.161816
-0.150867
-0.141297
-0.132862
-0.125373
-0.118679
-0.112660
-0.107221
-0.102280
-0.097774
-0.093647
-0.089853
-0.086354
-0.083116
-0.080112
-0.077318
-0.074711
-0.072274
-3.097475
-3.095810
-3.094014
-3.092071
-3.089963
-3.087668
-3.085159
-3.082406
-3.079371
-3.076008
-3.072262
-3.068062
-3.063322
-3.057930
-3.051743
-3.044571
-3.036158
-3.026156
-3.014068
-2.999171
-2.980368
-2.955911
-2.922846
-2.875790
-2.803917
-2.682467
-2.445887
-1.927344
-1.145692
-0.664006
-0.443854
-0.329085
-0.260376
-0.215031
-0.182986
-0.159183
-0.140823
-0.126240
-0.114382
-0.104553
-0.096275
-0.089208
-0.083106
-0.077783
-0.073100
-0.068948
-0.065242
-0.061913
-0.058907
-0.056179
-0.053693
-0.051417
-0.049326
-0.047398
-0.045615
-0.043962
-0.042424
-0.040990
-0.039649
-3.133870
-3.133578
-3.133263
-3.132922
-3.132553
-3.132150
-3.131710
-3.131227
-3.130694
-3.130103
-3.129445
-3.128706
-3.127873
-3.126923
-3.125833
-3.124568
-3.123081
-3.121310
-3.119165
-3.116512
-3.113148
-3.108742
-3.102722
-3.094001
-3.080243
-3.055323
-2.996546
-2.702488
-0.368759
-0.136055
-0.082994
-0.059673
-0.046575
-0.038190
-0.032363
-0.028078
-0.024795
-0.022199
-0.020095
-0.018356
-0.016893
-0.015647
-0.014571
-0.013634
-0.012810
-0.012081
-0.011429
-0.010845
-0.010317
-0.009838
-0.009402
-0.009003
-0.008636
-0.008298
-0.007985
-0.007696
-0.007426
-0.007175
-0.006940
3.112901
3.111817
3.110647
3.109383
3.108010
3.106516
3.104882
3.103089
3.101111
3.098920
3.096478
3.093740
3.090648
3.087129
3.083089
3.078403
3.072901
3.066353
3.058427
3.048640
3.036252
3.020073
2.998063
2.966417
2.917167
2.830629
2.644272
2.091070
0.962522
0.470617
0.299810
0.218472
0.171505
0.141047
0.119732
0.103993
0.091901
0.082323
0.074549
0.068115
0.062701
0.058084
0.054100
0.050627
0.047572
0.044865
0.042449
0.040280
0.038322
0.036545
0.034926
0.033444
0.032082
0.030827
0.029667
0.028591
0.027590
0.026656
0.025784
3.076562
3.074111
3.071468
3.068610
3.065510
3.062135
3.058447
3.054402
3.049944
3.045007
3.039510
3.033351
3.026406
3.018513
3.009466
2.998992
2.986730
2.972182
2.954654
2.933137
2.906127
2.871271
2.824707
2.759702
2.663674
2.511494
2.252731
1.818118
1.273034
0.856937
0.611692
0.466663
0.374476
0.311687
0.266496
0.232541
0.206151
0.185079
0.167878
0.153579
0.141510
0.131190
0.122265
0.114473
0.107610
0.101521
0.096083
0.091196
0.086780
0.082772
0.079117
0.075770
0.072695
0.069859
0.067236
0.064802
0.062538
0.060427
0.058453
3.040394
3.036596
3.032502
3.028078
3.023282
3.018065
3.012369
3.006126
2.999253
2.991650
2.983198
2.973744
2.963104
2.951041
2.937253
2.921349
2.902811
2.880943
2.854787
2.822994
2.783611
2.733734
2.668906
2.582113
2.462195
2.292112
2.050837
1.731329
1.376469
1.063704
0.830146
0.665858
0.549805
0.465556
0.402439
0.353747
0.315211
0.284040
0.258353
0.236846
0.218591
0.202913
0.189309
0.177396
0.166880
0.157532
0.149168
0.141641
0.134834
0.128647
0.123000
0.117826
0.113068
0.108678
0.104615
0.100844
0.097334
0.094060
0.090998
3.004490
2.999375
2.993867
2.987918
2.981474
2.974472
2.966835
2.958476
2.949287
2.939140
2.927880
2.915316
2.901214
2.885277
2.867135
2.846309
2.822179
2.793928
2.760460
2.720285
2.671340
2.610734
2.534390
2.436610
2.309806
2.145231
1.936746
1.689415
1.426943
1.182653
0.978478
0.817938
0.694336
0.598944
0.524351
0.465036
0.417055
0.377611
0.344709
0.316901
0.293125
0.272585
0.254676
0.238932
0.224991
0.212564
0.201420
0.191373
0.182269
0.173984
0.166413
0.159468
0.153075
0.147172
0.141704
0.136625
0.131895
0.127481
0.123351
2.968938
2.962547
2.955670
2.948251
2.940223
2.931510
2.922022
2.911652
2.900274
2.887737
2.873858
2.858417
2.841144
2.821702
2.799676
2.774539
2.745622
2.712063
2.672746
2.626208
2.570530
2.503196
2.420966
2.319853
2.195444
2.044046
1.865163
1.664806
1.456694
1.257933
1.081586
0.932911
0.810956
0.711870
0.631253
0.565182
0.510492
0.464733
0.426034
0.392971
0.364455
0.339648
0.317894
0.298680
0.281598
0.266320
0.252581
0.240164
0.228890
0.218611
0.209203
0.200560
0.192595
0.185231
0.178404
0.172057
0.166143
0.160618
0.155446
2.933821
2.926203
2.918014
2.909190
2.899655
2.889321
2.878087
2.865832
2.852415
2.837668
2.821390
2.803340
2.783227
2.760694
2.735304
2.706517
2.673662
2.635898
2.592174
2.541171
2.481251
2.410417
2.326328
2.226464
2.108556
1.971473
1.816522
1.648636
1.476279
1.309325
1.155959
1.020733
0.904657
0.806435
0.723746
0.654071
0.595099
0.544871
0.501779
0.464535
0.432109
0.403680
0.378590
0.356310
0.336412
0.318546
0.302427
0.287818
0.274521
0.262371
0.251229
0.240977
0.231515
0.222755
0.214625
0.207059
0.200001
0.193403
0.187221
2.899216
2.890427
2.880992
2.870838
2.859883
2.848030
2.835168
2.821169
2.805880
2.789122
2.770684
2.750316
2.727716
2.702524
2.674306
2.642535
2.606574
2.565649
2.518825
2.464987
2.402823
2.330849
2.247492
2.151287
2.041244
1.917403
1.781470
1.637205
1.490137
1.346462
1.211573
1.089031
0.980353
0.885452
0.803271
0.732319
0.671027
0.617926
0.571722
0.531317
0.495795
0.464396
0.436493
0.411572
0.389203
0.369035
0.350771
0.334165
0.319008
0.305126
0.292368
0.280607
0.269733
0.259653
0.250283
0.241554
0.233402
0.225773
0.218619
2.865194
2.855297
2.844686
2.833285
2.821005
2.807743
2.793384
2.777791
2.760807
2.742249
2.721901
2.699512
2.674784
2.647365
2.616841
2.582720
2.544422
2.501264
2.452457
2.397096
2.334183
2.262674
2.181573
2.090112
1.988008
1.875785
1.755070
1.628698
1.500458
1.374481
1.254487
1.143196
1.042119
0.951688
0.871559
0.800931
0.738799
0.684117
0.635897
0.593245
0.555381
0.521634
0.491432
0.464292
0.439806
0.417627
0.397464
0.379068
0.362227
0.346760
0.332513
0.319352
0.307162
0.295841
0.285303
0.275472
0.266280
0.257668
0.249585
2.831815
2.820878
2.809169
2.796609
2.783105
2.768552
2.752829
2.735800
2.717304
2.697159
2.675152
2.651038
2.624530
2.595298
2.562958
2.527064
2.487108
2.442510
2.392623
2.336745
2.274145
2.204122
2.126090
2.039713
1.945077
1.842866
1.734497
1.622122
1.508440
1.396342
1.288489
1.186964
1.093112
1.007551
0.930318
0.861045
0.799131
0.743867
0.694525
0.650405
0.610868
0.575342
0.543322
0.514371
0.488110
0.464212
0.442397
0.422421
0.404075
0.387179
0.371576
0.357130
0.343722
0.331249
0.319619
0.308752
0.298579
0.289037
0.280070
2.799134
2.787228
2.774502
2.760875
2.746251
2.730526
2.713578
2.695270
2.675445
2.653924
2.630503
2.604948
2.576992
2.546329
2.512615
2.475458
2.434424
2.389033
2.338774
2.283116
2.221547
2.153618
2.079019
1.997673
1.909844
1.816231
1.718027
1.616886
1.514796
1.413858
1.316034
1.222939
1.135717
1.055023
0.981080
0.913786
0.852813
0.797703
0.747940
0.702995
0.662358
0.625555
0.592154
0.561769
0.534059
0.508722
0.485496
0.464149
0.444479
0.426309
0.409486
0.393873
0.379351
0.365815
0.353172
0.341341
0.330249
0.319831
0.310029
2.767198
2.754395
2.740735
2.726133
2.710497
2.693720
2.675683
2.656253
2.635277
2.612584
2.587982
2.561253
2.532152
2.500404
2.465706
2.427721
2.386088
2.340420
2.290323
2.235408
2.175329
2.109819
2.038749
1.962189
1.880476
1.794266
1.704549
1.612619
1.519978
1.428199
1.338771
1.252960
1.171725
1.095689
1.025160
0.960187
0.900623
0.846193
0.796543
0.751285
0.710023
0.672374
0.637977
0.606500
0.577640
0.551128
0.526721
0.504204
0.483385
0.464097
0.446188
0.429527
0.413995
0.399489
0.385916
0.373193
0.361246
0.350010
0.339425
2.736043
2.722419
2.707907
2.692425
2.675881
2.658170
2.639179
2.618777
2.596821
2.573149
2.547584
2.519924
2.489952
2.457423
2.422076
2.383629
2.341784
2.296238
2.246693
2.192876
2.134562
2.071613
2.004013
1.931910
1.855663
1.775859
1.693321
1.609075
1.524282
1.440153
1.357839
1.278348
1.202482
1.130805
1.063653
1.001158
0.943289
0.889898
0.840755
0.795582
0.754081
0.715948
0.680887
0.648618
0.618881
0.591434
0.566061
0.542564
0.520766
0.500507
0.481646
0.464054
0.447617
0.432233
0.417812
0.404270
0.391534
0.379538
0.368223
2.705699
2.691327
2.676047
2.659777
2.642428
2.623899
2.604082
2.582852
2.560076
2.535605
2.509274
2.480905
2.450303
2.417257
2.381544
2.342931
2.301181
2.256057
2.207343
2.154852
2.098451
2.038086
1.973811
1.905814
1.834444
1.760220
1.683825
1.606084
1.527915
1.450266
1.374048
1.300073
1.229011
1.161364
1.097463
1.037483
0.981466
0.929349
0.880993
0.836208
0.794772
0.756452
0.721009
0.688210
0.657834
0.629671
0.603529
0.579230
0.556610
0.535524
0.515837
0.497428
0.480187
0.464017
0.448829
0.434542
0.421083
0.408387
0.396395
2.676190
2.661143
2.645175
2.628207
2.610152
2.590916
2.570393
2.548471
2.525025
2.499917
2.473001
2.444116
2.413094
2.379755
2.343910
2.305372
2.263951
2.219472
2.171778
2.120750
2.066320
2.008490
1.947356
1.883120
1.816108
1.746774
1.675689
1.603526
1.531022
1.458932
1.387990
1.318858
1.252098
1.188151
1.127331
1.069830
1.015732
0.965032
0.917657
0.873482
0.832350
0.794081
0.758489
0.725383
0.694576
0.665891
0.639157
0.614217
0.590925
0.569144
0.548752
0.529635
0.511689
0.494822
0.478947
0.463986
0.449870
0.436533
0.423918
2.647529
2.631880
2.615302
2.597722
2.579056
2.559215
2.538103
2.515613
2.491631
2.466035
2.438692
2.409463
2.378202
2.344756
2.308971
2.270695
2.229783
2.186105
2.139555
2.090061
2.037602
1.982217
1.924023
1.863223
1.800115
1.735094
1.668643
1.601315
1.533709
1.466440
1.400105
1.335250
1.272351
1.211792
1.153864
1.098760
1.046588
0.997383
0.951115
0.907712
0.867062
0.829035
0.793485
0.760258
0.729200
0.700161
0.672994
0.647560
0.623729
0.601378
0.580394
0.560672
0.542115
0.524635
0.508151
0.492589
0.477879
0.463960
0.450774
2.619727
2.603543
2.586431
2.568320
2.549133
2.528785
2.507188
2.484244
2.459851
2.433897
2.406268
2.376841
2.345492
2.312095
2.276523
2.238656
2.198385
2.155616
2.110282
2.062347
2.011822
1.958767
1.903311
1.845648
1.786049
1.724857
1.662481
1.599383
1.536056
1.473006
1.410726
1.349672
1.290248
1.232789
1.177558
1.124745
1.074470
1.026788
0.981706
0.939183
0.899151
0.861512
0.826157
0.792964
0.761808
0.732561
0.705100
0.679303
0.655055
0.632247
0.610775
0.590545
0.571465
0.553455
0.536436
0.520339
0.505098
0.490653
0.476950
2.592786
2.576133
2.558558
2.539994
2.520368
2.499604
2.477618
2.454324
2.429629
2.403434
2.375640
2.346141
2.314832
2.281608
2.246370
2.209023
2.169487
2.127698
2.083616
2.037233
1.988580
1.937731
1.884817
1.830021
1.773586
1.715812
1.657048
1.597681
1.538124
1.478798
1.420113
1.362455
1.306167
1.251544
1.198824
1.148184
1.099749
1.053589
1.009731
0.968163
0.928843
0.891705
0.856667
0.823634
0.792506
0.763177
0.735542
0.709498
0.684943
0.661780
0.639918
0.619268
0.599748
0.581283
0.563801
0.547234
0.531522
0.516607
0.502436
2.566704
2.549644
2.531673
2.512727
2.492740
2.471642
2.449356
2.425805
2.400905
2.374571
2.346715
2.317249
2.286085
2.253138
2.218327
2.181582
2.142846
2.102076
2.059257
2.014397
1.967540
1.918770
1.868214
1.816041
1.762471
1.707764
1.652221
1.596170
1.539959
1.483943
1.428467
1.373858
1.320413
1.268389
1.217999
1.169410
1.122745
1.078082
1.035462
0.994891
0.956350
0.919797
0.885170
0.852400
0.821405
0.792099
0.764396
0.738205
0.713440
0.690015
0.667848
0.646861
0.626978
0.608130
0.590250
0.573276
0.557150
0.541818
0.527228
2.541474
2.524067
2.505761
2.486501
2.466224
2.444866
2.422359
2.398632
2.373614
2.347228
2.319401
2.290057
2.259123
2.226531
2.192220
2.156136
2.118240
2.078510
2.036943
1.993562
1.948421
1.901604
1.853233
1.803466
1.752498
1.700558
1.647905
1.594820
1.541600
1.488544
1.435948
1.384092
1.333231
1.283592
1.235366
1.188707
1.143734
1.100528
1.059139
1.019587
0.981869
0.945959
0.911817
0.879390
0.848614
0.819420
0.791737
0.765487
0.740598
0.716993
0.694601
0.673351
0.653175
0.634010
0.615795
0.598471
0.581985
0.566286
0.551325
2.517087
2.499385
2.480804
2.461290
2.440788
2.419238
2.396580
2.372752
2.347689
2.321327
2.293603
2.264453
2.233819
2.201646
2.167887
2.132504
2.095472
2.056783
2.016446
1.974494
1.930982
1.885998
1.839655
1.792098
1.743502
1.694068
1.644022
1.593606
1.543074
1.492684
1.442687
1.393325
1.344822
1.297376
1.251159
1.206313
1.162950
1.121152
1.080974
1.042447
1.005576
0.970353
0.936749
0.904728
0.874241
0.845232
0.817643
0.791411
0.766471
0.742759
0.720212
0.698766
0.678362
0.658942
0.640448
0.622829
0.606034
0.590016
0.574728
2.493527
2.475583
2.456779
2.437068
2.416398
2.394717
2.371971
2.348105
2.323063
2.296789
2.269230
2.240335
2.210055
2.178348
2.145178
2.110522
2.074365
2.036708
1.997570
1.956988
1.915022
1.871755
1.827294
1.781773
1.735347
1.688194
1.640511
1.592509
1.544407